NAME                                    
   1.00000000000000     
     4.916533    0.018667   -0.000000
    -2.442100    4.267176   -0.000000
     0.000000    0.000000    3.202405
   C 
     8
Direct
 -0.000462  0.000462  0.073170
  0.333792  0.166208  0.073170
  0.499538  0.000462  0.073170
  0.833792  0.166208  0.073170
 -0.000462  0.500462  0.073170
  0.333792  0.666208  0.073170
  0.499538  0.500462  0.073170
  0.833792  0.666208  0.073170
 
   72   72   36
 0.99790448649E+02 0.10153204080E+03 0.10593164242E+03 0.11085641129E+03 0.11396838686E+03
 0.11372875896E+03 0.10987871010E+03 0.10325174753E+03 0.95160166849E+02 0.86767220184E+02
 0.78759731552E+02 0.71564632266E+02 0.65492903902E+02 0.60581873248E+02 0.56726841815E+02
 0.53805495344E+02 0.51748757570E+02 0.50552342602E+02 0.50244665092E+02 0.50843897981E+02
 0.52338068121E+02 0.54702913253E+02 0.57943442343E+02 0.62125140341E+02 0.67361083523E+02
 0.73738501849E+02 0.81190971062E+02 0.89376490023E+02 0.97853960576E+02 0.10587526373E+03
 0.11222815532E+03 0.11560689393E+03 0.11525987414E+03 0.11158126631E+03 0.10623720697E+03
 0.10161576637E+03 0.99790448649E+02 0.10153204080E+03 0.10593164242E+03 0.11085641129E+03
 0.11396838686E+03 0.11372875896E+03 0.10987871010E+03 0.10325174753E+03 0.95160166849E+02
 0.86767220184E+02 0.78759731552E+02 0.71564632266E+02 0.65492903902E+02 0.60581873248E+02
 0.56726841815E+02 0.53805495344E+02 0.51748757570E+02 0.50552342602E+02 0.50244665092E+02
 0.50843897981E+02 0.52338068121E+02 0.54702913253E+02 0.57943442343E+02 0.62125140341E+02
 0.67361083523E+02 0.73738501849E+02 0.81190971062E+02 0.89376490023E+02 0.97853960576E+02
 0.10587526373E+03 0.11222815532E+03 0.11560689393E+03 0.11525987414E+03 0.11158126631E+03
 0.10623720697E+03 0.10161576637E+03 0.10161576637E+03 0.10153716151E+03 0.10506465640E+03
 0.11053552064E+03 0.11550799385E+03 0.11786612663E+03 0.11662265811E+03 0.11206680332E+03
 0.10532001313E+03 0.97663677897E+02 0.90029422689E+02 0.82916330766E+02 0.76727645786E+02
 0.71607018831E+02 0.67486119431E+02 0.64238829375E+02 0.61789078708E+02 0.60148761940E+02
 0.59388191936E+02 0.59570744327E+02 0.60700891042E+02 0.62722400539E+02 0.65566648842E+02
 0.69216944412E+02 0.73738029701E+02 0.79237523243E+02 0.85755782585E+02 0.93109361704E+02
 0.10088073513E+03 0.10853616715E+03 0.11508305638E+03 0.11921398728E+03 0.11985131235E+03
 0.11682180732E+03 0.11125739293E+03 0.10537503788E+03 0.10161576637E+03 0.10153716151E+03
 0.10506465640E+03 0.11053552064E+03 0.11550799385E+03 0.11786612663E+03 0.11662265811E+03
 0.11206680332E+03 0.10532001313E+03 0.97663677897E+02 0.90029422688E+02 0.82916330766E+02
 0.76727645786E+02 0.71607018831E+02 0.67486119431E+02 0.64238829375E+02 0.61789078707E+02
 0.60148761940E+02 0.59388191936E+02 0.59570744326E+02 0.60700891042E+02 0.62722400539E+02
 0.65566648842E+02 0.69216944412E+02 0.73738029701E+02 0.79237523243E+02 0.85755782585E+02
 0.93109361704E+02 0.10088073513E+03 0.10853616715E+03 0.11508305638E+03 0.11921398728E+03
 0.11985131235E+03 0.11682180732E+03 0.11125739293E+03 0.10537503788E+03 0.10623720697E+03
 0.10421428748E+03 0.10593910492E+03 0.11053560172E+03 0.11593881132E+03 0.11987134988E+03
 0.12080544454E+03 0.11842484101E+03 0.11345000829E+03 0.10705951882E+03 0.10029864573E+03
 0.93780943548E+02 0.87921783236E+02 0.82956294689E+02 0.78852687211E+02 0.75477764548E+02
 0.72750506982E+02 0.70714825147E+02 0.69493428148E+02 0.69216040140E+02 0.69940582139E+02
 0.71617269485E+02 0.74121393570E+02 0.77330266169E+02 0.81190075716E+02 0.85755290025E+02
 0.91129505682E+02 0.97306882730E+02 0.10401308002E+03 0.11083102081E+03 0.11709986870E+03
 0.12172968722E+03 0.12354665720E+03 0.12190707284E+03 0.11725865834E+03 0.11125739293E+03
 0.10623720697E+03 0.10421428748E+03 0.10593910492E+03 0.11053560172E+03 0.11593881132E+03
 0.11987134988E+03 0.12080544454E+03 0.11842484101E+03 0.11345000829E+03 0.10705951882E+03
 0.10029864573E+03 0.93780943548E+02 0.87921783236E+02 0.82956294689E+02 0.78852687211E+02
 0.75477764549E+02 0.72750507017E+02 0.70714825218E+02 0.69493428208E+02 0.69216040148E+02
 0.69940582089E+02 0.71617269412E+02 0.74121393523E+02 0.77330266164E+02 0.81190075716E+02
 0.85755290025E+02 0.91129505682E+02 0.97306882730E+02 0.10401308002E+03 0.11083102081E+03
 0.11709986870E+03 0.12172968722E+03 0.12354665720E+03 0.12190707284E+03 0.11725865834E+03
 0.11125739293E+03 0.11158126631E+03 0.10820886762E+03 0.10800139352E+03 0.11090182604E+03
 0.11553633047E+03 0.11989134581E+03 0.12223224307E+03 0.12176013630E+03 0.11871618680E+03
 0.11399705355E+03 0.10859440708E+03 0.10318569027E+03 0.98168580043E+02 0.93816313067E+02
 0.90114276162E+02 0.86921587300E+02 0.84168514615E+02 0.81894283498E+02 0.80263041766E+02
 0.79498848555E+02 0.79764007373E+02 0.81062954857E+02 0.83239247925E+02 0.86067608751E+02
 0.89375307705E+02 0.93108473672E+02 0.97306386533E+02 0.10205939841E+03 0.10733911978E+03
 0.11284782609E+03 0.11819024138E+03 0.12264766828E+03 0.12520844709E+03 0.12501018594E+03
 0.12190707284E+03 0.11682180732E+03 0.11158126631E+03 0.10820886762E+03 0.10800139352E+03
 0.11090182604E+03 0.11553633047E+03 0.11989134581E+03 0.12223224307E+03 0.12176013630E+03
 0.11871618680E+03 0.11399705355E+03 0.10859440708E+03 0.10318569027E+03 0.98168580043E+02
 0.93816313067E+02 0.90114276162E+02 0.86921587399E+02 0.84168514881E+02 0.81894283863E+02
 0.80263042091E+02 0.79498848704E+02 0.79764007284E+02 0.81062954566E+02 0.83239247554E+02
 0.86067608449E+02 0.89375307567E+02 0.93108473663E+02 0.97306386533E+02 0.10205939841E+03
 0.10733911978E+03 0.11284782609E+03 0.11819024138E+03 0.12264766828E+03 0.12520844709E+03
 0.12501018594E+03 0.12190707284E+03 0.11682180732E+03 0.11525987414E+03 0.11142071356E+03
 0.10977696242E+03 0.11087228148E+03 0.11408447859E+03 0.11794689305E+03 0.12086146252E+03
 0.12178827698E+03 0.12055454881E+03 0.11769502252E+03 0.11401162560E+03 0.11014731203E+03
 0.10646404962E+03 0.10321387131E+03 0.10036928619E+03 0.97793925064E+02 0.95371432923E+02
 0.93091812862E+02 0.91141883617E+02 0.89863730525E+02 0.89592332942E+02 0.90470945287E+02
 0.92366885610E+02 0.94945690209E+02 0.97852649456E+02 0.10087958383E+03 0.10401220559E+03
 0.10733863352E+03 0.11093527087E+03 0.11478148393E+03 0.11862455530E+03 0.12210876293E+03
 0.12456884854E+03 0.12520844709E+03 0.12354665720E+03 0.11985131235E+03 0.11525987414E+03
 0.11142071356E+03 0.10977696242E+03 0.11087228148E+03 0.11408447859E+03 0.11794689305E+03
 0.12086146252E+03 0.12178827698E+03 0.12055454881E+03 0.11769502252E+03 0.11401162560E+03
 0.11014731203E+03 0.10646404962E+03 0.10321387131E+03 0.10036928626E+03 0.97793925430E+02
 0.95371433651E+02 0.93091813808E+02 0.91141884515E+02 0.89863731100E+02 0.89592333013E+02
 0.90470944828E+02 0.92366884764E+02 0.94945689239E+02 0.97852648648E+02 0.10087958337E+03
 0.10401220548E+03 0.10733863352E+03 0.11093527087E+03 0.11478148393E+03 0.11862455530E+03
 0.12210876293E+03 0.12456884854E+03 0.12520844709E+03 0.12354665720E+03 0.11985131235E+03
 0.11560689393E+03 0.11199823118E+03 0.10963226766E+03 0.10931985101E+03 0.11103144899E+03
 0.11391975598E+03 0.11675637283E+03 0.11851495094E+03 0.11876793823E+03 0.11771535706E+03
 0.11590468442E+03 0.11385952524E+03 0.11188259450E+03 0.11016567945E+03 0.10864490652E+03
 0.10715670333E+03 0.10548030341E+03 0.10349574078E+03 0.10136054457E+03 0.99529782772E+02
 0.98576963104E+02 0.98904925084E+02 0.10052390888E+03 0.10304188922E+03 0.10587415523E+03
 0.10853500543E+03 0.11082991844E+03 0.11284696553E+03 0.11478101232E+03 0.11674479928E+03
 0.11875273290E+03 0.12063578165E+03 0.12210876293E+03 0.12264766828E+03 0.12172968722E+03
 0.11921398728E+03 0.11560689393E+03 0.11199823118E+03 0.10963226766E+03 0.10931985101E+03
 0.11103144899E+03 0.11391975598E+03 0.11675637283E+03 0.11851495094E+03 0.11876793823E+03
 0.11771535706E+03 0.11590468442E+03 0.11385952524E+03 0.11188259450E+03 0.11016567945E+03
 0.10864490672E+03 0.10715670408E+03 0.10548030479E+03 0.10349574257E+03 0.10136054637E+03
 0.99529784141E+02 0.98576963690E+02 0.98904924734E+02 0.10052390768E+03 0.10304188747E+03
 0.10587415338E+03 0.10853500391E+03 0.11082991754E+03 0.11284696523E+03 0.11478101232E+03
 0.11674479928E+03 0.11875273290E+03 0.12063578165E+03 0.12210876293E+03 0.12264766828E+03
 0.12172968722E+03 0.11921398728E+03 0.11222815532E+03 0.10909616797E+03 0.10655383147E+03
 0.10538275034E+03 0.10588435555E+03 0.10772487776E+03 0.11011854702E+03 0.11223124542E+03
 0.11355651615E+03 0.11405782546E+03 0.11403889411E+03 0.11386649301E+03 0.11376835609E+03
 0.11386607685E+03 0.11403803356E+03 0.11405648054E+03 0.11355466657E+03 0.11222897522E+03
 0.11011609067E+03 0.10772257850E+03 0.10588253727E+03 0.10538156787E+03 0.10655319249E+03
 0.10909578348E+03 0.11222769571E+03 0.11508232195E+03 0.11709887711E+03 0.11818919204E+03
 0.11862370648E+03 0.11875226904E+03 0.11876826213E+03 0.11875273290E+03 0.11862455530E+03
 0.11819024138E+03 0.11709986870E+03 0.11508305638E+03 0.11222815532E+03 0.10909616797E+03
 0.10655383147E+03 0.10538275034E+03 0.10588435555E+03 0.10772487776E+03 0.11011854702E+03
 0.11223124542E+03 0.11355651615E+03 0.11405782546E+03 0.11403889411E+03 0.11386649301E+03
 0.11376835609E+03 0.11386607685E+03 0.11403803390E+03 0.11405648170E+03 0.11355466868E+03
 0.11222897802E+03 0.11011609363E+03 0.10772258101E+03 0.10588253877E+03 0.10538156805E+03
 0.10655319129E+03 0.10909578116E+03 0.11222769277E+03 0.11508231902E+03 0.11709887479E+03
 0.11818919067E+03 0.11862370600E+03 0.11875226903E+03 0.11876826213E+03 0.11875273290E+03
 0.11862455530E+03 0.11819024138E+03 0.11709986870E+03 0.11508305638E+03 0.10587526373E+03
 0.10304297521E+03 0.10052513956E+03 0.98906512977E+02 0.98579041889E+02 0.99532325143E+02
 0.10136336967E+03 0.10349859925E+03 0.10548298074E+03 0.10715907938E+03 0.10864694668E+03
 0.11016737830E+03 0.11188394540E+03 0.11386047998E+03 0.11590516990E+03 0.11771527708E+03
 0.11876718878E+03 0.11851352932E+03 0.11675447408E+03 0.11391777838E+03 0.11102987128E+03
 0.10931902650E+03 0.10963224901E+03 0.11199873768E+03 0.11560745180E+03 0.11921416591E+03
 0.12172929652E+03 0.12264681368E+03 0.12210774846E+03 0.12063493756E+03 0.11875226904E+03
 0.11674479928E+03 0.11478148393E+03 0.11284782609E+03 0.11083102081E+03 0.10853616715E+03
 0.10587526373E+03 0.10304297521E+03 0.10052513956E+03 0.98906512977E+02 0.98579041889E+02
 0.99532325143E+02 0.10136336967E+03 0.10349859925E+03 0.10548298074E+03 0.10715907938E+03
 0.10864694668E+03 0.11016737830E+03 0.11188394540E+03 0.11386047998E+03 0.11590517033E+03
 0.11771527856E+03 0.11876719155E+03 0.11851353314E+03 0.11675447832E+03 0.11391778224E+03
 0.11102987404E+03 0.10931902764E+03 0.10963224830E+03 0.11199873526E+03 0.11560744810E+03
 0.11921416165E+03 0.12172929251E+03 0.12264681063E+03 0.12210774673E+03 0.12063493698E+03
 0.11875226903E+03 0.11674479928E+03 0.11478148393E+03 0.11284782609E+03 0.11083102081E+03
 0.10853616715E+03 0.97853960576E+02 0.94947109636E+02 0.92368460810E+02 0.90472793983E+02
 0.89594567256E+02 0.89866381078E+02 0.91144871107E+02 0.93094981472E+02 0.95374618377E+02
 0.97797010784E+02 0.10037221510E+03 0.10321661549E+03 0.10646658301E+03 0.11014955421E+03
 0.11401345848E+03 0.11769630187E+03 0.12055507718E+03 0.12178792163E+03 0.12086030252E+03
 0.11794529788E+03 0.11408303539E+03 0.11087157096E+03 0.10977728916E+03 0.11142194681E+03
 0.11526150352E+03 0.11985269506E+03 0.12354731739E+03 0.12520826352E+03 0.12456804660E+03
 0.12210774846E+03 0.11862370648E+03 0.11478101232E+03 0.11093527087E+03 0.10733911978E+03
 0.10401308002E+03 0.10088073513E+03 0.97853960576E+02 0.94947109636E+02 0.92368460810E+02
 0.90472793983E+02 0.89594567256E+02 0.89866381078E+02 0.91144871107E+02 0.93094981472E+02
 0.95374618377E+02 0.97797010784E+02 0.10037221510E+03 0.10321661549E+03 0.10646658301E+03
 0.11014955421E+03 0.11401345888E+03 0.11769630347E+03 0.12055508038E+03 0.12178792627E+03
 0.12086030793E+03 0.11794530315E+03 0.11408303960E+03 0.11087157340E+03 0.10977728941E+03
 0.11142194483E+03 0.11526149962E+03 0.11985268989E+03 0.12354731187E+03 0.12520825862E+03
 0.12456804308E+03 0.12210774659E+03 0.11862370593E+03 0.11478101232E+03 0.11093527087E+03
 0.10733911978E+03 0.10401308002E+03 0.10088073513E+03 0.89376490023E+02 0.86069017523E+02
 0.83240869254E+02 0.81064835120E+02 0.79766218658E+02 0.79501435310E+02 0.80265983675E+02
 0.81897497758E+02 0.84171892594E+02 0.86925037485E+02 0.90117743776E+02 0.93819770683E+02
 0.98171998524E+02 0.10318898253E+03 0.10859742194E+03 0.11399962181E+03 0.11871803798E+03
 0.12176099493E+03 0.12223200725E+03 0.11989024665E+03 0.11553495185E+03 0.11090092344E+03
 0.10800157327E+03 0.10821029420E+03 0.11158357149E+03 0.11682426422E+03 0.12190893943E+03
 0.12501102575E+03 0.12520826352E+03 0.12264681368E+03 0.11818919204E+03 0.11284696553E+03
 0.10733863352E+03 0.10205939841E+03 0.97306882730E+02 0.93109361704E+02 0.89376490023E+02
 0.86069017523E+02 0.83240869254E+02 0.81064835120E+02 0.79766218657E+02 0.79501435310E+02
 0.80265983675E+02 0.81897497758E+02 0.84171892594E+02 0.86925037485E+02 0.90117743775E+02
 0.93819770683E+02 0.98171998524E+02 0.10318898253E+03 0.10859742221E+03 0.11399962329E+03
 0.11871804127E+03 0.12176100004E+03 0.12223201357E+03 0.11989025318E+03 0.11553495751E+03
 0.11090092733E+03 0.10800157482E+03 0.10821029315E+03 0.11158356799E+03 0.11682425879E+03
 0.12190893292E+03 0.12501101926E+03 0.12520825811E+03 0.12264681006E+03 0.11818919031E+03
 0.11284696514E+03 0.10733863352E+03 0.10205939841E+03 0.97306882730E+02 0.93109361704E+02
 0.81190971062E+02 0.77331462888E+02 0.74122848740E+02 0.71618990119E+02 0.69942607446E+02
 0.69218410471E+02 0.69496152918E+02 0.70717871097E+02 0.72753813084E+02 0.75481270575E+02
 0.78856353961E+02 0.82960107363E+02 0.87925725543E+02 0.93784946467E+02 0.10030254964E+03
 0.10706315159E+03 0.11345307498E+03 0.11842695592E+03 0.12080630492E+03 0.11987095539E+03
 0.11593759507E+03 0.11053435352E+03 0.10593867585E+03 0.10421520854E+03 0.10623943183E+03
 0.11126031927E+03 0.11726142050E+03 0.12190893943E+03 0.12354731739E+03 0.12172929652E+03
 0.11709887711E+03 0.11082991844E+03 0.10401220559E+03 0.97306386533E+02 0.91129505682E+02
 0.85755782585E+02 0.81190971062E+02 0.77331462888E+02 0.74122848740E+02 0.71618990119E+02
 0.69942607446E+02 0.69218410471E+02 0.69496152918E+02 0.70717871097E+02 0.72753813084E+02
 0.75481270575E+02 0.78856353961E+02 0.82960107363E+02 0.87925725543E+02 0.93784946467E+02
 0.10030254974E+03 0.10706315271E+03 0.11345307797E+03 0.11842696103E+03 0.12080631169E+03
 0.11987096284E+03 0.11593760201E+03 0.11053435887E+03 0.10593867883E+03 0.10421520877E+03
 0.10623942926E+03 0.11126031423E+03 0.11726141371E+03 0.12190893194E+03 0.12354731042E+03
 0.12172929111E+03 0.11709887382E+03 0.11082991712E+03 0.10401220542E+03 0.97306386533E+02
 0.91129505682E+02 0.85755782585E+02 0.73738501849E+02 0.69217812156E+02 0.65567836621E+02
 0.62723869440E+02 0.60702645498E+02 0.59572813736E+02 0.59390599156E+02 0.60151504746E+02
 0.61792130266E+02 0.64242156234E+02 0.67489703421E+02 0.71610863339E+02 0.76731756585E+02
 0.82920672622E+02 0.90033863528E+02 0.97668044509E+02 0.10532404581E+03 0.11207007851E+03
 0.11662471605E+03 0.11786670461E+03 0.11550724921E+03 0.11053409141E+03 0.10506347155E+03
 0.10153705884E+03 0.10161711061E+03 0.10537755513E+03 0.11126031927E+03 0.11682426422E+03
 0.11985269506E+03 0.11921416591E+03 0.11508232195E+03 0.10853500543E+03 0.10087958383E+03
 0.93108473672E+02 0.85755290025E+02 0.79237523243E+02 0.73738501849E+02 0.69217812156E+02
 0.65567836621E+02 0.62723869440E+02 0.60702645498E+02 0.59572813736E+02 0.59390599156E+02
 0.60151504746E+02 0.61792130266E+02 0.64242156234E+02 0.67489703421E+02 0.71610863339E+02
 0.76731756585E+02 0.82920672622E+02 0.90033863529E+02 0.97668045153E+02 0.10532404815E+03
 0.11207008310E+03 0.11662472270E+03 0.11786671246E+03 0.11550725705E+03 0.11053409801E+03
 0.10506347597E+03 0.10153706050E+03 0.10161710930E+03 0.10537755101E+03 0.11126031287E+03
 0.11682425646E+03 0.11985268713E+03 0.11921415906E+03 0.11508231710E+03 0.10853500285E+03
 0.10087958304E+03 0.93108473656E+02 0.85755290025E+02 0.79237523243E+02 0.67361083523E+02
 0.62125577684E+02 0.57944252314E+02 0.54704041916E+02 0.52339491876E+02 0.50845621128E+02
 0.50246702986E+02 0.50554703909E+02 0.51751437835E+02 0.53808485104E+02 0.56730141634E+02
 0.60585501997E+02 0.65496888577E+02 0.71568974876E+02 0.78764357287E+02 0.86771956562E+02
 0.95164820110E+02 0.10325594229E+03 0.10988192681E+03 0.11373052583E+03 0.11396854112E+03
 0.11085528285E+03 0.10593001831E+03 0.10153087845E+03 0.99790462685E+02 0.10161711061E+03
 0.10623943183E+03 0.11158357149E+03 0.11526150352E+03 0.11560745180E+03 0.11222769571E+03
 0.10587415523E+03 0.97852649456E+02 0.89375307705E+02 0.81190075716E+02 0.73738029701E+02
 0.67361083523E+02 0.62125577684E+02 0.57944252314E+02 0.54704041916E+02 0.52339491876E+02
 0.50845621128E+02 0.50246702986E+02 0.50554703909E+02 0.51751437834E+02 0.53808485104E+02
 0.56730141634E+02 0.60585501997E+02 0.65496888577E+02 0.71568974876E+02 0.78764357287E+02
 0.86771956770E+02 0.95164821595E+02 0.10325594590E+03 0.10988193272E+03 0.11373053344E+03
 0.11396854932E+03 0.11085529034E+03 0.10593002398E+03 0.10153088153E+03 0.99790462801E+02
 0.10161710775E+03 0.10623942636E+03 0.11158356412E+03 0.11526149535E+03 0.11560744410E+03
 0.11222768963E+03 0.10587415141E+03 0.97852647802E+02 0.89375307423E+02 0.81190075716E+02
 0.73738029701E+02 0.62125140341E+02 0.56237166901E+02 0.51519125949E+02 0.47852657463E+02
 0.45127589939E+02 0.43283131612E+02 0.42303956321E+02 0.42192747227E+02 0.42946994770E+02
 0.44559529037E+02 0.47042668694E+02 0.50456532258E+02 0.54914212746E+02 0.60542844787E+02
 0.67394198720E+02 0.75315597927E+02 0.83924735391E+02 0.92776588289E+02 0.10100684589E+03
 0.10737918332E+03 0.11074490434E+03 0.11067155938E+03 0.10787745207E+03 0.10412856838E+03
 0.10153087845E+03 0.10153705884E+03 0.10421520854E+03 0.10821029420E+03 0.11142194681E+03
 0.11199873768E+03 0.10909578348E+03 0.10304188922E+03 0.94945690209E+02 0.86067608751E+02
 0.77330266169E+02 0.69216944412E+02 0.62125140341E+02 0.56237166901E+02 0.51519125949E+02
 0.47852657463E+02 0.45127589939E+02 0.43283131612E+02 0.42303956321E+02 0.42192747227E+02
 0.42946994770E+02 0.44559529037E+02 0.47042668694E+02 0.50456532258E+02 0.54914212746E+02
 0.60542844787E+02 0.67394198720E+02 0.75315597929E+02 0.83924736049E+02 0.92776590660E+02
 0.10100685052E+03 0.10737919001E+03 0.11074491223E+03 0.11067156722E+03 0.10787745862E+03
 0.10412857270E+03 0.10153087998E+03 0.10153705741E+03 0.10421520433E+03 0.10821028776E+03
 0.11142193907E+03 0.11199872982E+03 0.10909577672E+03 0.10304188446E+03 0.94945687693E+02
 0.86067607996E+02 0.77330266157E+02 0.69216944412E+02 0.57943442343E+02 0.51518731708E+02
 0.46319593643E+02 0.42245577746E+02 0.39168666384E+02 0.36991352070E+02 0.35662782092E+02
 0.35165985427E+02 0.35497084035E+02 0.36655899024E+02 0.38655847292E+02 0.41545281655E+02
 0.45421147571E+02 0.50414482136E+02 0.56634917658E+02 0.64073677053E+02 0.72488573218E+02
 0.81525446003E+02 0.90680397373E+02 0.99014447323E+02 0.10536698764E+03 0.10885267990E+03
 0.10938395201E+03 0.10787745207E+03 0.10593001831E+03 0.10506347155E+03 0.10593867585E+03
 0.10800157327E+03 0.10977728916E+03 0.10963224901E+03 0.10655319249E+03 0.10052390888E+03
 0.92366885610E+02 0.83239247925E+02 0.74121393570E+02 0.65566648842E+02 0.57943442343E+02
 0.51518731708E+02 0.46319593643E+02 0.42245577746E+02 0.39168666384E+02 0.36991352070E+02
 0.35662782092E+02 0.35165985427E+02 0.35497084035E+02 0.36655899024E+02 0.38655847292E+02
 0.41545281655E+02 0.45421147571E+02 0.50414482136E+02 0.56634917658E+02 0.64073677053E+02
 0.72488573329E+02 0.81525447162E+02 0.90680400435E+02 0.99014452521E+02 0.10536699448E+03
 0.10885268737E+03 0.10938395889E+03 0.10787745727E+03 0.10593002109E+03 0.10506347155E+03
 0.10593867308E+03 0.10800156812E+03 0.10977728236E+03 0.10963224161E+03 0.10655318567E+03
 0.10052390365E+03 0.92366882463E+02 0.83239246679E+02 0.74121393424E+02 0.65566648842E+02
 0.54702913253E+02 0.47851921603E+02 0.42245227917E+02 0.37806434837E+02 0.34404698578E+02
 0.31920537569E+02 0.30274999970E+02 0.29429264492E+02 0.29369554678E+02 0.30094124899E+02
 0.31613392973E+02 0.33963256301E+02 0.37220678871E+02 0.41505087572E+02 0.46950936717E+02
 0.53644223125E+02 0.61526789986E+02 0.70323476537E+02 0.79730973171E+02 0.89204482465E+02
 0.97828326568E+02 0.10459465796E+03 0.10885267990E+03 0.11067155938E+03 0.11085528285E+03
 0.11053409141E+03 0.11053435352E+03 0.11090092344E+03 0.11087157096E+03 0.10931902650E+03
 0.10538156787E+03 0.98904925084E+02 0.90470945287E+02 0.81062954857E+02 0.71617269485E+02
 0.62722400539E+02 0.54702913253E+02 0.47851921603E+02 0.42245227917E+02 0.37806434837E+02
 0.34404698578E+02 0.31920537569E+02 0.30274999970E+02 0.29429264492E+02 0.29369554678E+02
 0.30094124899E+02 0.31613392973E+02 0.33963256301E+02 0.37220678871E+02 0.41505087572E+02
 0.46950936717E+02 0.53644223125E+02 0.61526789986E+02 0.70323476830E+02 0.79730974709E+02
 0.89204485858E+02 0.97828331787E+02 0.10459466435E+03 0.10885268641E+03 0.11067156492E+03
 0.11085528651E+03 0.11053409265E+03 0.11053435219E+03 0.11090091974E+03 0.11087156546E+03
 0.10931902006E+03 0.10538156156E+03 0.98904919902E+02 0.90470941875E+02 0.81062953268E+02
 0.71617269155E+02 0.62722400539E+02 0.52338068121E+02 0.45126548965E+02 0.39168006943E+02
 0.34404388928E+02 0.30707039345E+02 0.27943315713E+02 0.26012741772E+02 0.24855651912E+02
 0.24444460741E+02 0.24770868253E+02 0.25840206335E+02 0.27677298059E+02 0.30339531609E+02
 0.33926114938E+02 0.38570416075E+02 0.44405315550E+02 0.51498285640E+02 0.59763236683E+02
 0.68938828424E+02 0.78756711381E+02 0.88668408131E+02 0.97828326568E+02 0.10536698764E+03
 0.11074490434E+03 0.11396854112E+03 0.11550724921E+03 0.11593759507E+03 0.11553495185E+03
 0.11408303539E+03 0.11102987128E+03 0.10588253727E+03 0.98576963104E+02 0.89592332942E+02
 0.79764007373E+02 0.69940582139E+02 0.60700891042E+02 0.52338068121E+02 0.45126548965E+02
 0.39168006943E+02 0.34404388928E+02 0.30707039345E+02 0.27943315713E+02 0.26012741772E+02
 0.24855651912E+02 0.24444460741E+02 0.24770868253E+02 0.25840206335E+02 0.27677298059E+02
 0.30339531609E+02 0.33926114938E+02 0.38570416075E+02 0.44405315550E+02 0.51498285639E+02
 0.59763236683E+02 0.68938828856E+02 0.78756713060E+02 0.88668411440E+02 0.97828331302E+02
 0.10536699308E+03 0.11074490954E+03 0.11396854513E+03 0.11550725136E+03 0.11593759501E+03
 0.11553494960E+03 0.11408303135E+03 0.11102986612E+03 0.10588253190E+03 0.98576958445E+02
 0.89592329664E+02 0.79764005682E+02 0.69940581681E+02 0.60700891042E+02 0.50843897981E+02
 0.43281798000E+02 0.36990405529E+02 0.31919946751E+02 0.27943039013E+02 0.24917908115E+02
 0.22727036173E+02 0.21291586957E+02 0.20568320902E+02 0.20539067817E+02 0.21202544156E+02
 0.22574462029E+02 0.24695935661E+02 0.27644296327E+02 0.31536664221E+02 0.36516329258E+02
 0.42715171622E+02 0.50191393352E+02 0.58851405244E+02 0.68459575122E+02 0.78756711381E+02
 0.89204482465E+02 0.99014447323E+02 0.10737918332E+03 0.11373052583E+03 0.11786670461E+03
 0.11987095539E+03 0.11989024665E+03 0.11794529788E+03 0.11391777838E+03 0.10772257850E+03
 0.99529782772E+02 0.89863730525E+02 0.79498848555E+02 0.69216040140E+02 0.59570744327E+02
 0.50843897981E+02 0.43281798000E+02 0.36990405529E+02 0.31919946751E+02 0.27943039013E+02
 0.24917908115E+02 0.22727036173E+02 0.21291586957E+02 0.20568320902E+02 0.20539067817E+02
 0.21202544156E+02 0.22574462029E+02 0.24695935661E+02 0.27644296327E+02 0.31536664221E+02
 0.36516329258E+02 0.42715171622E+02 0.50191393352E+02 0.58851405247E+02 0.68459575585E+02
 0.78756712938E+02 0.89204485326E+02 0.99014451196E+02 0.10737918753E+03 0.11373052956E+03
 0.11786670714E+03 0.11987095625E+03 0.11989024568E+03 0.11794529527E+03 0.11391777464E+03
 0.10772257434E+03 0.99529778976E+02 0.89863727719E+02 0.79498847015E+02 0.69216039668E+02
 0.59570744322E+02 0.50244665092E+02 0.42302325144E+02 0.35661552741E+02 0.30274139864E+02
 0.26012206974E+02 0.22726784686E+02 0.20286393520E+02 0.18594734565E+02 0.17592057171E+02
 0.17247736384E+02 0.17551971829E+02 0.18512410694E+02 0.20157782567E+02 0.22546437111E+02
 0.25774020106E+02 0.29972463448E+02 0.35292806769E+02 0.41867187956E+02 0.49750577020E+02
 0.58851405244E+02 0.68938828424E+02 0.79730973171E+02 0.90680397373E+02 0.10100684589E+03
 0.10988192681E+03 0.11662471605E+03 0.12080630492E+03 0.12223200725E+03 0.12086030252E+03
 0.11675447408E+03 0.11011609067E+03 0.10136054457E+03 0.91141883617E+02 0.80263041766E+02
 0.69493428148E+02 0.59388191936E+02 0.50244665092E+02 0.42302325144E+02 0.35661552741E+02
 0.30274139864E+02 0.26012206974E+02 0.22726784686E+02 0.20286393520E+02 0.18594734565E+02
 0.17592057171E+02 0.17247736384E+02 0.17551971829E+02 0.18512410694E+02 0.20157782567E+02
 0.22546437111E+02 0.25774020106E+02 0.29972463448E+02 0.35292806769E+02 0.41867187956E+02
 0.49750577020E+02 0.58851405247E+02 0.68938828801E+02 0.79730974397E+02 0.90680399546E+02
 0.10100684871E+03 0.10988192971E+03 0.11662471841E+03 0.12080630621E+03 0.12223200720E+03
 0.12086030115E+03 0.11675447170E+03 0.11011608779E+03 0.10136054180E+03 0.91141881499E+02
 0.80263040570E+02 0.69493427773E+02 0.59388191932E+02 0.50552342602E+02 0.42190808742E+02
 0.35164466779E+02 0.29428133639E+02 0.24854863533E+02 0.21291095268E+02 0.18594501720E+02
 0.16653487706E+02 0.15391888866E+02 0.14764758365E+02 0.14751488657E+02 0.15351164189E+02
 0.16582709966E+02 0.18489807506E+02 0.21147979633E+02 0.24668964922E+02 0.29196183789E+02
 0.34885432821E+02 0.41867187956E+02 0.50191393352E+02 0.59763236683E+02 0.70323476537E+02
 0.81525446003E+02 0.92776588289E+02 0.10325594229E+03 0.11207007851E+03 0.11842695592E+03
 0.12176099493E+03 0.12178792163E+03 0.11851352932E+03 0.11222897522E+03 0.10349574078E+03
 0.93091812862E+02 0.81894283498E+02 0.70714825147E+02 0.60148761940E+02 0.50552342602E+02
 0.42190808742E+02 0.35164466779E+02 0.29428133639E+02 0.24854863533E+02 0.21291095268E+02
 0.18594501720E+02 0.16653487706E+02 0.15391888866E+02 0.14764758365E+02 0.14751488657E+02
 0.15351164189E+02 0.16582709966E+02 0.18489807506E+02 0.21147979633E+02 0.24668964922E+02
 0.29196183789E+02 0.34885432821E+02 0.41867187956E+02 0.50191393352E+02 0.59763236683E+02
 0.70323476760E+02 0.81525446795E+02 0.92776589699E+02 0.10325594407E+03 0.11207008024E+03
 0.11842695715E+03 0.12176099535E+03 0.12178792114E+03 0.11851352805E+03 0.11222897349E+03
 0.10349573903E+03 0.93091811493E+02 0.81894282732E+02 0.70714824931E+02 0.60148761940E+02
 0.51748757570E+02 0.42944742854E+02 0.35495266693E+02 0.29368144533E+02 0.24443413577E+02
 0.20567588958E+02 0.17591597975E+02 0.15391669877E+02 0.13876573954E+02 0.12986326090E+02
 0.12687482390E+02 0.12968921476E+02 0.13840318646E+02 0.15333965897E+02 0.17509222322E+02
 0.20457352936E+02 0.24302854412E+02 0.29196183789E+02 0.35292806769E+02 0.42715171622E+02
 0.51498285640E+02 0.61526789986E+02 0.72488573218E+02 0.83924735391E+02 0.95164820110E+02
 0.10532404581E+03 0.11345307498E+03 0.11871803798E+03 0.12055507718E+03 0.11876718878E+03
 0.11355466657E+03 0.10548030341E+03 0.95371432923E+02 0.84168514615E+02 0.72750506982E+02
 0.61789078708E+02 0.51748757570E+02 0.42944742854E+02 0.35495266693E+02 0.29368144533E+02
 0.24443413577E+02 0.20567588958E+02 0.17591597975E+02 0.15391669877E+02 0.13876573954E+02
 0.12986326090E+02 0.12687482390E+02 0.12968921476E+02 0.13840318646E+02 0.15333965897E+02
 0.17509222322E+02 0.20457352936E+02 0.24302854412E+02 0.29196183789E+02 0.35292806769E+02
 0.42715171622E+02 0.51498285639E+02 0.61526789986E+02 0.72488573292E+02 0.83924735775E+02
 0.95164820844E+02 0.10532404673E+03 0.11345307581E+03 0.11871803846E+03 0.12055507716E+03
 0.11876718827E+03 0.11355466573E+03 0.10548030251E+03 0.95371432211E+02 0.84168514248E+02
 0.72750506913E+02 0.61789078708E+02 0.53805495344E+02 0.44556959609E+02 0.36653772711E+02
 0.30092423540E+02 0.24769551541E+02 0.20538088030E+02 0.17247048125E+02 0.14764323934E+02
 0.12986117686E+02 0.11838105286E+02 0.11272987428E+02 0.11267642259E+02 0.11821503767E+02
 0.12956697014E+02 0.14719901704E+02 0.17185358304E+02 0.20457352936E+02 0.24668964922E+02
 0.29972463448E+02 0.36516329258E+02 0.44405315550E+02 0.53644223125E+02 0.64073677053E+02
 0.75315597927E+02 0.86771956562E+02 0.97668044509E+02 0.10706315159E+03 0.11399962181E+03
 0.11769630187E+03 0.11771527708E+03 0.11405648054E+03 0.10715670333E+03 0.97793925064E+02
 0.86921587300E+02 0.75477764548E+02 0.64238829375E+02 0.53805495344E+02 0.44556959609E+02
 0.36653772711E+02 0.30092423540E+02 0.24769551541E+02 0.20538088030E+02 0.17247048125E+02
 0.14764323934E+02 0.12986117686E+02 0.11838105286E+02 0.11272987428E+02 0.11267642259E+02
 0.11821503767E+02 0.12956697014E+02 0.14719901704E+02 0.17185358304E+02 0.20457352936E+02
 0.24668964922E+02 0.29972463448E+02 0.36516329258E+02 0.44405315550E+02 0.53644223125E+02
 0.64073677053E+02 0.75315597928E+02 0.86771956665E+02 0.97668044771E+02 0.10706315193E+03
 0.11399962210E+03 0.11769630198E+03 0.11771527696E+03 0.11405648024E+03 0.10715670299E+03
 0.97793924811E+02 0.86921587204E+02 0.75477764548E+02 0.64238829375E+02 0.56726841815E+02
 0.47039770153E+02 0.38653395659E+02 0.31611383286E+02 0.25838604345E+02 0.21201303421E+02
 0.17551045117E+02 0.14750834282E+02 0.12687067057E+02 0.11272787120E+02 0.10447112916E+02
 0.10173907891E+02 0.10440942223E+02 0.11259706114E+02 0.12665794488E+02 0.14719901704E+02
 0.17509222322E+02 0.21147979633E+02 0.25774020106E+02 0.31536664221E+02 0.38570416075E+02
 0.46950936717E+02 0.56634917658E+02 0.67394198720E+02 0.78764357287E+02 0.90033863528E+02
 0.10030254964E+03 0.10859742194E+03 0.11401345848E+03 0.11590516990E+03 0.11403803356E+03
 0.10864490652E+03 0.10036928619E+03 0.90114276162E+02 0.78852687211E+02 0.67486119431E+02