   8   8   0   0
  0.6446233E+01  0.4920000E-09  0.4920000E-09  0.2460000E-09  0.5000000E-15
  1.000000000000000E-004
  CAR 
 NAME                                    
     29.84908790    -16.70741070  301      5.20706367      1.00000000
    -16.707  0.0000E+00  0.0000E+00
    -16.552  0.0000E+00  0.0000E+00
    -16.397  0.0000E+00  0.0000E+00
    -16.242  0.0000E+00  0.0000E+00
    -16.087  0.0000E+00  0.0000E+00
    -15.931  0.0000E+00  0.0000E+00
    -15.776  0.0000E+00  0.0000E+00
    -15.621  0.0000E+00  0.0000E+00
    -15.466  0.0000E+00  0.0000E+00
    -15.311  0.0000E+00  0.0000E+00
    -15.156  0.0000E+00  0.0000E+00
    -15.000  0.0000E+00  0.0000E+00
    -14.845  0.0000E+00  0.0000E+00
    -14.690  0.0000E+00  0.0000E+00
    -14.535  0.3227E-04  0.6070E-06
    -14.380  0.3875E-03  0.2955E-04
    -14.224  0.9972E-03  0.1333E-03
    -14.069  0.1923E-02  0.3579E-03
    -13.914  0.2887E-02  0.7310E-03
    -13.759  0.3481E-02  0.1233E-02
    -13.604  0.3632E-02  0.1790E-02
    -13.448  0.3270E-02  0.2332E-02
    -13.293  0.2765E-02  0.2800E-02
    -13.138  0.2261E-02  0.3190E-02
    -12.983  0.1755E-02  0.3502E-02
    -12.828  0.1250E-02  0.3735E-02
    -12.673  0.7447E-03  0.3890E-02
    -12.517  0.5354E-03  0.3976E-02
    -12.362  0.1317E-02  0.4110E-02
    -12.207  0.3035E-02  0.4432E-02
    -12.052  0.5251E-02  0.5075E-02
    -11.897  0.5209E-02  0.5976E-02
    -11.741  0.4206E-02  0.6703E-02
    -11.586  0.1699E-02  0.7173E-02
    -11.431  0.1744E-02  0.7438E-02
    -11.276  0.1819E-02  0.7714E-02
    -11.121  0.1894E-02  0.8002E-02
    -10.965  0.1969E-02  0.8302E-02
    -10.810  0.2043E-02  0.8613E-02
    -10.655  0.2118E-02  0.8936E-02
    -10.500  0.2193E-02  0.9271E-02
    -10.345  0.2268E-02  0.9617E-02
    -10.190  0.2343E-02  0.9975E-02
    -10.034  0.3883E-02  0.1040E-01
     -9.879  0.5653E-02  0.1116E-01
     -9.724  0.6984E-02  0.1218E-01
     -9.569  0.5585E-02  0.1316E-01
     -9.414  0.4187E-02  0.1391E-01
     -9.258  0.2853E-02  0.1446E-01
     -9.103  0.1864E-02  0.1482E-01
     -8.948  0.1380E-02  0.1506E-01
     -8.793  0.1174E-02  0.1526E-01
     -8.638  0.1029E-02  0.1543E-01
     -8.482  0.8839E-03  0.1558E-01
     -8.327  0.7388E-03  0.1570E-01
     -8.172  0.6127E-03  0.1581E-01
     -8.017  0.6014E-03  0.1590E-01
     -7.862  0.7056E-03  0.1600E-01
     -7.706  0.8336E-03  0.1612E-01
     -7.551  0.9932E-03  0.1626E-01
     -7.396  0.1286E-02  0.1643E-01
     -7.241  0.1939E-02  0.1668E-01
     -7.086  0.2895E-02  0.1705E-01
     -6.931  0.3876E-02  0.1758E-01
     -6.775  0.4857E-02  0.1826E-01
     -6.620  0.5839E-02  0.1909E-01
     -6.465  0.6821E-02  0.2007E-01
     -6.310  0.6898E-02  0.2115E-01
     -6.155  0.5810E-02  0.2216E-01
     -5.999  0.5037E-02  0.2303E-01
     -5.844  0.3886E-02  0.2372E-01
     -5.689  0.2734E-02  0.2423E-01
     -5.534  0.1581E-02  0.2457E-01
     -5.379  0.7127E-03  0.2474E-01
     -5.223  0.5865E-03  0.2483E-01
     -5.068  0.6187E-03  0.2492E-01
     -4.913  0.6509E-03  0.2502E-01
     -4.758  0.6831E-03  0.2513E-01
     -4.603  0.7153E-03  0.2523E-01
     -4.448  0.1885E-02  0.2543E-01
     -4.292  0.2640E-02  0.2581E-01
     -4.137  0.2393E-02  0.2620E-01
     -3.982  0.2145E-02  0.2655E-01
     -3.827  0.1898E-02  0.2687E-01
     -3.672  0.1650E-02  0.2714E-01
     -3.516  0.1416E-02  0.2738E-01
     -3.361  0.1288E-02  0.2759E-01
     -3.206  0.1285E-02  0.2779E-01
     -3.051  0.1443E-02  0.2799E-01
     -2.896  0.1770E-01  0.2899E-01
     -2.740  0.2098E-01  0.3261E-01
     -2.585  0.6640E-02  0.3462E-01
     -2.430  0.3105E-02  0.3529E-01
     -2.275  0.3204E-02  0.3578E-01
     -2.120  0.3106E-02  0.3627E-01
     -1.965  0.2952E-02  0.3674E-01
     -1.809  0.2745E-02  0.3718E-01
     -1.654  0.2476E-02  0.3759E-01
     -1.499  0.2139E-02  0.3795E-01
     -1.344  0.2072E-02  0.3825E-01
     -1.189  0.4668E-02  0.3872E-01
     -1.033  0.7540E-02  0.3970E-01
     -0.878  0.1062E-01  0.4112E-01
     -0.723  0.1346E-01  0.4299E-01
     -0.568  0.9619E-02  0.4509E-01
     -0.413  0.6400E-02  0.4618E-01
     -0.257  0.6451E-02  0.4714E-01
     -0.102  0.4376E-02  0.4800E-01
      0.053  0.3295E-02  0.4857E-01
      0.208  0.3505E-02  0.4910E-01
      0.363  0.3730E-02  0.4966E-01
      0.518  0.4119E-02  0.5026E-01
      0.674  0.4972E-02  0.5096E-01
      0.829  0.6307E-02  0.5183E-01
      0.984  0.1251E-01  0.5298E-01
      1.139  0.5216E-02  0.5418E-01
      1.294  0.4875E-02  0.5497E-01
      1.450  0.4394E-02  0.5569E-01
      1.605  0.3952E-02  0.5633E-01
      1.760  0.4080E-02  0.5695E-01
      1.915  0.4379E-02  0.5760E-01
      2.070  0.4337E-02  0.5829E-01
      2.226  0.3328E-02  0.5888E-01
      2.381  0.2883E-02  0.5936E-01
      2.536  0.2767E-02  0.5979E-01
      2.691  0.2707E-02  0.6022E-01
      2.846  0.2643E-02  0.6063E-01
      3.002  0.2627E-02  0.6104E-01
      3.157  0.2936E-02  0.6147E-01
      3.312  0.2986E-02  0.6193E-01
      3.467  0.2898E-02  0.6239E-01
      3.622  0.2280E-02  0.6281E-01
      3.777  0.1351E-02  0.6309E-01
      3.933  0.1007E-02  0.6326E-01
      4.088  0.8763E-03  0.6341E-01
      4.243  0.7466E-03  0.6354E-01
      4.398  0.6224E-03  0.6364E-01
      4.553  0.5171E-03  0.6373E-01
      4.709  0.4445E-03  0.6380E-01
      4.864  0.4005E-03  0.6387E-01
      5.019  0.3771E-03  0.6393E-01
      5.174  0.3699E-03  0.6399E-01
      5.329  0.3788E-03  0.6405E-01
      5.485  0.4039E-03  0.6411E-01
      5.640  0.4476E-03  0.6417E-01
      5.795  0.5160E-03  0.6425E-01
      5.950  0.6443E-03  0.6434E-01
      6.105  0.8822E-03  0.6445E-01
      6.260  0.1226E-02  0.6461E-01
      6.416  0.1649E-02  0.6484E-01
      6.571  0.2126E-02  0.6513E-01
      6.726  0.2654E-02  0.6550E-01
      6.881  0.3180E-02  0.6595E-01
      7.036  0.3026E-02  0.6644E-01
      7.192  0.2653E-02  0.6689E-01
      7.347  0.2519E-02  0.6728E-01
      7.502  0.2597E-02  0.6768E-01
      7.657  0.2685E-02  0.6809E-01
      7.812  0.2805E-02  0.6851E-01
      7.968  0.2958E-02  0.6896E-01
      8.123  0.3126E-02  0.6943E-01
      8.278  0.3008E-02  0.6992E-01
      8.433  0.2510E-02  0.7035E-01
      8.588  0.1793E-02  0.7068E-01
      8.743  0.1508E-02  0.7093E-01
      8.899  0.1495E-02  0.7116E-01
      9.054  0.1482E-02  0.7139E-01
      9.209  0.1470E-02  0.7162E-01
      9.364  0.1457E-02  0.7185E-01
      9.519  0.1790E-02  0.7210E-01
      9.675  0.2091E-02  0.7240E-01
      9.830  0.2180E-02  0.7274E-01
      9.985  0.2196E-02  0.7308E-01
     10.140  0.2198E-02  0.7342E-01
     10.295  0.2188E-02  0.7376E-01
     10.451  0.2166E-02  0.7410E-01
     10.606  0.2581E-02  0.7445E-01
     10.761  0.2532E-02  0.7487E-01
     10.916  0.2191E-02  0.7523E-01
     11.071  0.1959E-02  0.7555E-01
     11.226  0.1916E-02  0.7585E-01
     11.382  0.1932E-02  0.7615E-01
     11.537  0.2030E-02  0.7645E-01
     11.692  0.2227E-02  0.7678E-01
     11.847  0.2522E-02  0.7715E-01
     12.002  0.2973E-02  0.7757E-01
     12.158  0.2565E-02  0.7806E-01
     12.313  0.2916E-02  0.7845E-01
     12.468  0.4586E-02  0.7905E-01
     12.623  0.5131E-02  0.7983E-01
     12.778  0.5372E-02  0.8063E-01
     12.934  0.5934E-02  0.8152E-01
     13.089  0.5940E-02  0.8244E-01
     13.244  0.5589E-02  0.8331E-01
     13.399  0.6171E-02  0.8422E-01
     13.554  0.5352E-02  0.8517E-01
     13.710  0.6280E-02  0.8612E-01
     13.865  0.5334E-02  0.8702E-01
     14.020  0.4855E-02  0.8780E-01
     14.175  0.4634E-02  0.8854E-01
     14.330  0.5349E-02  0.8930E-01
     14.485  0.5253E-02  0.9014E-01
     14.641  0.5137E-02  0.9093E-01
     14.796  0.7441E-02  0.9190E-01
     14.951  0.1113E-01  0.9362E-01
     15.106  0.2433E-01  0.9527E-01
     15.261  0.8908E-02  0.9720E-01
     15.417  0.1069E-01  0.9871E-01
     15.572  0.8360E-02  0.1002E+00
     15.727  0.5546E-02  0.1012E+00
     15.882  0.6439E-02  0.1021E+00
     16.037  0.8035E-02  0.1032E+00
     16.193  0.1302E-01  0.1047E+00
     16.348  0.1602E-01  0.1074E+00
     16.503  0.1261E-01  0.1096E+00
     16.658  0.6889E-02  0.1111E+00
     16.813  0.5186E-02  0.1120E+00
     16.968  0.4437E-02  0.1127E+00
     17.124  0.3800E-02  0.1134E+00
     17.279  0.3697E-02  0.1139E+00
     17.434  0.3855E-02  0.1145E+00
     17.589  0.3081E-02  0.1151E+00
     17.744  0.3423E-02  0.1156E+00
     17.900  0.3953E-02  0.1161E+00
     18.055  0.4710E-02  0.1168E+00
     18.210  0.5687E-02  0.1176E+00
     18.365  0.6961E-02  0.1186E+00
     18.520  0.8326E-02  0.1198E+00
     18.676  0.7599E-02  0.1211E+00
     18.831  0.4875E-02  0.1220E+00
     18.986  0.4226E-02  0.1227E+00
     19.141  0.4202E-02  0.1234E+00
     19.296  0.3187E-02  0.1240E+00
     19.451  0.2143E-02  0.1244E+00
     19.607  0.2134E-02  0.1247E+00
     19.762  0.2318E-02  0.1250E+00
     19.917  0.2584E-02  0.1254E+00
     20.072  0.2800E-02  0.1258E+00
     20.227  0.4291E-02  0.1264E+00
     20.383  0.4309E-02  0.1271E+00
     20.538  0.3913E-02  0.1277E+00
     20.693  0.3443E-02  0.1283E+00
     20.848  0.3008E-02  0.1288E+00
     21.003  0.2494E-02  0.1292E+00
     21.159  0.1916E-02  0.1295E+00
     21.314  0.2160E-02  0.1298E+00
     21.469  0.3919E-02  0.1303E+00
     21.624  0.6123E-02  0.1312E+00
     21.779  0.7977E-02  0.1322E+00
     21.934  0.1028E-01  0.1336E+00
     22.090  0.1146E-01  0.1353E+00
     22.245  0.1093E-01  0.1371E+00
     22.400  0.7177E-02  0.1386E+00
     22.555  0.4259E-02  0.1394E+00
     22.710  0.4309E-02  0.1400E+00
     22.866  0.3561E-02  0.1406E+00
     23.021  0.3190E-02  0.1411E+00
     23.176  0.3452E-02  0.1417E+00
     23.331  0.4303E-02  0.1423E+00
     23.486  0.5499E-02  0.1430E+00
     23.642  0.8498E-02  0.1440E+00
     23.797  0.8088E-02  0.1453E+00
     23.952  0.8221E-02  0.1466E+00
     24.107  0.6754E-02  0.1478E+00
     24.262  0.5063E-02  0.1487E+00
     24.417  0.4794E-02  0.1494E+00
     24.573  0.4600E-02  0.1502E+00
     24.728  0.4409E-02  0.1509E+00
     24.883  0.4231E-02  0.1515E+00
     25.038  0.4264E-02  0.1522E+00
     25.193  0.4703E-02  0.1529E+00
     25.349  0.4517E-02  0.1536E+00
     25.504  0.5110E-02  0.1543E+00
     25.659  0.5182E-02  0.1551E+00
     25.814  0.4721E-02  0.1559E+00
     25.969  0.3993E-02  0.1566E+00
     26.125  0.3270E-02  0.1571E+00
     26.280  0.3443E-02  0.1577E+00
     26.435  0.2646E-02  0.1581E+00
     26.590  0.1789E-02  0.1585E+00
     26.745  0.1590E-02  0.1587E+00
     26.901  0.1597E-02  0.1590E+00
     27.056  0.1524E-02  0.1592E+00
     27.211  0.1380E-02  0.1595E+00
     27.366  0.1237E-02  0.1597E+00
     27.521  0.1112E-02  0.1598E+00
     27.676  0.4341E-03  0.1600E+00
     27.832  0.0000E+00  0.1600E+00
     27.987  0.0000E+00  0.1600E+00
     28.142  0.0000E+00  0.1600E+00
     28.297  0.0000E+00  0.1600E+00
     28.452  0.0000E+00  0.1600E+00
     28.608  0.0000E+00  0.1600E+00
     28.763  0.0000E+00  0.1600E+00
     28.918  0.0000E+00  0.1600E+00
     29.073  0.0000E+00  0.1600E+00
     29.228  0.0000E+00  0.1600E+00
     29.384  0.0000E+00  0.1600E+00
     29.539  0.0000E+00  0.1600E+00
     29.694  0.0000E+00  0.1600E+00
     29.849  0.0000E+00  0.1600E+00
