    8    8  500    1
  0.6446233E+01  0.4920000E-09  0.4920000E-09  0.2460000E-09  0.5000000E-15
  1.000000000000000E-004
  CAR 
 NAME                                    
   32   21   24
