    8    8  500    1
  0.6446233E+01  0.4920000E-09  0.4920000E-09  0.2460000E-09  0.5000000E-15
  1.000000000000000E-004
  CAR 
 NAME                                    
   32   16   40
 
  0.3742002E-15  0.3742002E-15  0.3742002E-15  0.1851852E-01
   1      -14.591206
   2       -9.337826
   3       -9.337826
   4       -9.176875
   5       -8.273524
   6       -8.185520
   7       -8.185520
   8       -1.332813
   9       -1.256787
  10       -1.256787
  11       -1.115809
  12        2.033513
  13        2.207593
  14        3.744877
  15        3.744877
  16        3.946217
  17        7.951172
  18        8.130432
  19        8.130432
  20        9.880495
  21       12.093396
  22       12.385283
  23       12.385283
  24       13.195006
  25       13.663427
  26       16.596084
  27       16.596084
  28       16.747525
  29       16.913410
  30       16.913410
  31       16.921481
  32       17.041875
  33       17.450729
  34       25.175591
  35       25.199274
  36       25.199274
  37       25.250918
  38       25.285748
  39       25.285748
  40       27.142242
 
  0.3333333E+00  0.3608225E-15  0.3742002E-15  0.7407407E-01
   1      -13.930203
   2      -11.982427
   3      -10.098011
   4      -10.064695
   5       -6.398110
   6       -6.370708
   7       -4.577304
   8       -2.978244
   9       -2.914382
  10       -0.626987
  11       -0.366209
  12       -0.202203
  13        0.969666
  14        1.727892
  15        3.573745
  16        3.661380
  17        8.565272
  18        8.642087
  19       10.653524
  20       11.026487
  21       12.559347
  22       13.231832
  23       13.406978
  24       14.629853
  25       14.905834
  26       15.116810
  27       15.375898
  28       15.395047
  29       16.089553
  30       18.284895
  31       18.474665
  32       18.614653
  33       20.085886
  34       21.495840
  35       22.360865
  36       22.395435
  37       23.462738
  38       23.642142
  39       26.531040
  40       26.613177
 
  0.3333333E+00  0.3333333E+00  0.3742002E-15  0.3703704E-01
   1      -12.633867
   2      -12.609253
   3      -12.609253
   4       -7.675895
   5       -7.473198
   6       -5.495450
   7       -2.720549
   8       -2.720549
   9       -2.587065
  10       -1.391579
  11       -1.257302
  12       -1.257302
  13        1.049975
  14        1.094499
  15        1.094499
  16        5.992347
  17        6.211282
  18       12.203458
  19       12.232674
  20       12.232674
  21       12.251810
  22       12.251810
  23       12.297896
  24       14.945088
  25       15.072567
  26       15.072567
  27       16.319847
  28       16.319847
  29       16.882336
  30       17.269001
  31       17.589407
  32       18.215635
  33       20.239532
  34       22.013264
  35       22.184445
  36       22.184445
  37       23.145740
  38       23.566430
  39       25.366136
  40       25.495383
 
 -0.3333333E+00  0.3333333E+00  0.3742002E-15  0.3703704E-01
   1      -13.922184
   2      -11.949095
   3      -10.140436
   4      -10.140436
   5       -6.320868
   6       -6.320868
   7       -4.554598
   8       -2.958927
   9       -2.958927
  10       -0.676173
  11       -0.351099
  12       -0.229577
  13        1.005045
  14        1.800307
  15        3.518305
  16        3.518305
  17        8.713599
  18        8.713599
  19       10.669028
  20       10.968974
  21       12.385745
  22       13.200851
  23       13.395427
  24       14.816554
  25       14.816554
  26       15.101282
  27       15.405966
  28       15.405966
  29       15.831512
  30       18.476352
  31       18.476352
  32       18.772122
  33       20.221613
  34       21.375440
  35       22.344158
  36       22.344158
  37       23.658314
  38       23.658314
  39       26.577233
  40       26.577233
 
  0.3742002E-15  0.3742002E-15  0.1666667E+00  0.3703704E-01
   1      -14.491215
   2       -9.259902
   3       -9.259902
   4       -9.098811
   5       -8.209839
   6       -8.120663
   7       -8.120663
   8       -1.845508
   9       -1.312321
  10       -1.236742
  11       -1.236742
  12        2.043989
  13        2.218401
  14        3.203555
  15        3.203555
  16        3.400429
  17        7.295507
  18        7.450853
  19        7.450853
  20       11.378959
  21       12.230069
  22       12.522626
  23       12.522626
  24       13.236364
  25       13.705643
  26       16.767530
  27       17.673398
  28       17.678856
  29       17.696899
  30       17.696899
  31       17.873295
  32       17.873295
  33       18.032363
  34       25.151097
  35       25.151097
  36       25.161493
  37       25.165663
  38       25.277080
  39       25.277080
  40       27.616087
 
  0.3333333E+00  0.3608225E-15  0.1666667E+00  0.1481481E+00
   1      -13.833489
   2      -11.894878
   3      -10.019225
   4       -9.986156
   5       -6.339269
   6       -6.312447
   7       -4.526766
   8       -2.942092
   9       -2.878883
  10       -1.084774
  11       -0.608139
  12       -0.172034
  13        0.987051
  14        1.073226
  15        3.001775
  16        3.084996
  17        8.069035
  18        8.129765
  19       10.513204
  20       12.088242
  21       12.825106
  22       13.493905
  23       14.440822
  24       14.830067
  25       14.830563
  26       15.125764
  27       16.127011
  28       16.228571
  29       16.231897
  30       18.576664
  31       18.781409
  32       18.820535
  33       20.608302
  34       21.509259
  35       21.661640
  36       21.685113
  37       24.126983
  38       24.177510
  39       24.964211
  40       27.732883
 
  0.3333333E+00  0.3333333E+00  0.1666667E+00  0.7407407E-01
   1      -12.543197
   2      -12.518766
   3      -12.518766
   4       -7.608502
   5       -7.405307
   6       -5.446902
   7       -2.679424
   8       -2.679424
   9       -2.545337
  10       -1.360222
  11       -1.225731
  12       -1.225731
  13        0.376586
  14        0.420511
  15        0.420511
  16        5.513740
  17        5.728601
  18       11.881159
  19       11.881159
  20       11.945495
  21       13.528698
  22       13.590089
  23       13.590089
  24       15.050217
  25       15.176516
  26       15.176516
  27       16.450377
  28       16.468222
  29       16.468222
  30       17.044320
  31       18.083224
  32       18.453220
  33       21.565077
  34       22.263464
  35       22.466589
  36       22.466589
  37       23.504470
  38       23.617731
  39       23.722802
  40       23.722802
 
 -0.3333333E+00  0.3333333E+00  0.1666667E+00  0.7407407E-01
   1      -13.825539
   2      -11.861814
   3      -10.061427
   4      -10.061427
   5       -6.262112
   6       -6.262112
   7       -4.504906
   8       -2.923291
   9       -2.923291
  10       -1.070282
  11       -0.656852
  12       -0.199657
  13        1.022789
  14        1.142653
  15        2.945586
  16        2.945586
  17        8.203576
  18        8.203576
  19       10.479328
  20       12.109368
  21       12.590115
  22       13.482094
  23       14.458765
  24       14.819626
  25       15.104454
  26       15.104454
  27       15.867499
  28       16.161458
  29       16.161458
  30       18.773629
  31       18.773629
  32       18.978365
  33       20.755237
  34       21.378844
  35       21.723474
  36       21.723474
  37       24.228190
  38       24.228190
  39       25.091321
  40       27.640171
 
  0.3742002E-15  0.3742002E-15  0.3333333E+00  0.3703704E-01
   1      -14.277640
   2       -9.096595
   3       -9.096595
   4       -8.935249
   5       -8.077770
   6       -7.986175
   7       -7.986175
   8       -3.067850
   9       -1.266544
  10       -1.192079
  11       -1.192079
  12        2.079462
  13        2.255091
  14        2.283033
  15        2.283033
  16        2.474782
  17        6.216751
  18        6.341406
  19        6.341406
  20       12.499378
  21       12.791673
  22       12.791673
  23       13.315533
  24       13.786596
  25       14.693441
  26       16.528467
  27       17.942504
  28       18.535315
  29       18.605165
  30       18.605165
  31       20.940759
  32       20.940759
  33       21.121089
  34       25.173718
  35       25.177665
  36       25.177665
  37       25.778139
  38       25.924906
  39       26.110304
  40       26.110304
 
  0.3333333E+00  0.3608225E-15  0.3333333E+00  0.1481481E+00
   1      -13.627526
   2      -11.710461
   3       -9.854248
   4       -9.821775
   5       -6.217085
   6       -6.191337
   7       -4.420727
   8       -2.864941
   9       -2.803098
  10       -2.279041
  11       -0.564350
  12       -0.112668
  13       -0.033177
  14        1.025376
  15        2.009445
  16        2.087417
  17        7.223513
  18        7.262266
  19        9.713562
  20       13.089162
  21       13.557555
  22       14.361678
  23       15.126937
  24       15.392279
  25       15.411804
  26       16.200362
  27       16.561260
  28       16.630237
  29       17.114930
  30       19.171683
  31       20.036046
  32       20.318571
  33       21.473351
  34       21.797129
  35       22.032052
  36       22.093556
  37       24.011024
  38       25.516144
  39       25.627949
  40       26.618981
 
  0.3333333E+00  0.3333333E+00  0.3333333E+00  0.7407407E-01
   1      -12.351780
   2      -12.327790
   3      -12.327790
   4       -7.469998
   5       -7.265715
   6       -5.348642
   7       -2.594971
   8       -2.594971
   9       -2.459357
  10       -1.300521
  11       -1.166392
  12       -1.166392
  13       -0.761247
  14       -0.717099
  15       -0.717099
  16        4.641965
  17        4.849921
  18       11.268939
  19       11.268939
  20       11.329805
  21       14.658896
  22       15.178230
  23       15.349258
  24       15.349258
  25       16.279314
  26       16.336921
  27       16.336921
  28       16.693790
  29       16.693790
  30       17.291681
  31       19.412167
  32       19.913938
  33       22.416149
  34       22.424928
  35       22.473154
  36       22.473154
  37       22.705265
  38       22.967003
  39       22.967003
  40       24.718602
 
 -0.3333333E+00  0.3333333E+00  0.3333333E+00  0.7407407E-01
   1      -13.619736
   2      -11.678068
   3       -9.895974
   4       -9.895974
   5       -6.140130
   6       -6.140130
   7       -4.400412
   8       -2.847393
   9       -2.847393
  10       -2.264750
  11       -0.611687
  12       -0.142102
  13        0.033088
  14        1.062218
  15        1.952823
  16        1.952823
  17        7.338294
  18        7.338294
  19        9.705054
  20       12.848323
  21       13.565449
  22       14.382248
  23       15.381016
  24       15.400461
  25       15.400461
  26       15.938082
  27       16.565293
  28       16.565293
  29       17.112819
  30       19.336512
  31       20.239188
  32       20.239188
  33       21.439582
  34       21.894044
  35       22.181362
  36       22.181362
  37       24.090757
  38       25.540116
  39       25.540116
  40       26.748690
 
  0.3742002E-15  0.3742002E-15  0.5000000E+00  0.1851852E-01
   1      -14.162952
   2       -9.010603
   3       -9.010603
   4       -8.849153
   5       -8.008899
   6       -7.915907
   7       -7.915907
   8       -3.587247
   9       -1.242861
  10       -1.169170
  11       -1.169170
  12        1.881723
  13        1.881723
  14        2.071123
  15        2.097124
  16        2.273164
  17        5.772563
  18        5.885224
  19        5.885224
  20       12.647777
  21       12.939940
  22       12.939940
  23       13.354843
  24       13.827114
  25       16.518456
  26       17.036058
  27       18.053084
  28       18.691937
  29       18.780141
  30       18.780141
  31       23.856489
  32       23.856489
  33       24.001195
  34       24.829840
  35       25.126392
  36       25.126392
  37       25.186514
  38       25.195169
  39       25.195169
  40       25.232851
 
  0.3333333E+00  0.3608225E-15  0.5000000E+00  0.7407407E-01
   1      -13.517240
   2      -11.612525
   3       -9.767359
   4       -9.735243
   5       -6.154833
   6       -6.129649
   7       -4.368285
   8       -2.825978
   9       -2.789975
  10       -2.764798
  11       -0.542876
  12       -0.506579
  13       -0.080065
  14        1.046821
  15        1.579549
  16        1.655599
  17        6.855001
  18        6.885303
  19        9.371930
  20       13.218031
  21       13.650540
  22       14.207345
  23       15.359696
  24       15.662626
  25       16.152610
  26       16.216426
  27       16.235218
  28       17.513525
  29       18.448151
  30       19.336705
  31       20.804798
  32       21.142249
  33       21.550641
  34       22.737697
  35       23.761491
  36       23.827661
  37       24.251783
  38       26.014063
  39       26.070137
  40       26.244376
 
  0.3333333E+00  0.3333333E+00  0.5000000E+00  0.3703704E-01
   1      -12.249822
   2      -12.226082
   3      -12.226082
   4       -7.397551
   5       -7.192652
   6       -5.298071
   7       -2.554302
   8       -2.554302
   9       -2.418009
  10       -1.267207
  11       -1.250550
  12       -1.208340
  13       -1.208340
  14       -1.131063
  15       -1.131063
  16        4.267424
  17        4.472422
  18       11.002377
  19       11.002377
  20       11.059876
  21       14.004413
  22       15.327650
  23       15.499790
  24       15.499790
  25       16.793410
  26       16.793410
  27       17.400092
  28       17.482322
  29       17.578736
  30       17.578736
  31       19.927983
  32       20.495103
  33       22.636274
  34       22.904723
  35       23.193652
  36       23.193652
  37       23.252685
  38       23.252685
  39       23.267468
  40       25.826440
 
 -0.3333333E+00  0.3333333E+00  0.5000000E+00  0.3703704E-01
   1      -13.509544
   2      -11.580511
   3       -9.808819
   4       -9.808819
   5       -6.077950
   6       -6.077950
   7       -4.348737
   8       -2.809240
   9       -2.809240
  10       -2.775709
  11       -0.589721
  12       -0.441287
  13       -0.110605
  14        1.084095
  15        1.523049
  16        1.523049
  17        6.961419
  18        6.961419
  19        9.373302
  20       12.977450
  21       13.662631
  22       14.218336
  23       15.654684
  24       15.654684
  25       15.971545
  26       16.154938
  27       16.154938
  28       17.518500
  29       18.417394
  30       19.507608
  31       21.141059
  32       21.141059
  33       21.462298
  34       22.979330
  35       23.783603
  36       23.783603
  37       24.325460
  38       26.071686
  39       26.226135
  40       26.226135
