Automatically generated mesh
      21
Reciprocal lattice
    0.00000000000000    0.00000000000000    0.00000000000000             1
    0.12500000000000    0.00000000000000    0.00000000000000             4
    0.25000000000000    0.00000000000000    0.00000000000000             4
    0.37500000000000    0.00000000000000    0.00000000000000             4
    0.50000000000000    0.00000000000000    0.00000000000000             2
    0.12500000000000    0.12500000000000    0.00000000000000             2
    0.25000000000000    0.12500000000000    0.00000000000000             4
    0.37500000000000    0.12500000000000    0.00000000000000             4
    0.50000000000000    0.12500000000000    0.00000000000000             4
   -0.37500000000000    0.12500000000000    0.00000000000000             4
   -0.25000000000000    0.12500000000000    0.00000000000000             4
   -0.12500000000000    0.12500000000000    0.00000000000000             2
    0.25000000000000    0.25000000000000    0.00000000000000             2
    0.37500000000000    0.25000000000000    0.00000000000000             4
    0.50000000000000    0.25000000000000    0.00000000000000             4
   -0.37500000000000    0.25000000000000    0.00000000000000             4
   -0.25000000000000    0.25000000000000    0.00000000000000             2
    0.37500000000000    0.37500000000000    0.00000000000000             2
    0.50000000000000    0.37500000000000    0.00000000000000             4
   -0.37500000000000    0.37500000000000    0.00000000000000             2
    0.50000000000000    0.50000000000000    0.00000000000000             1
Tetrahedra
       100    0.00260416666667
         4         2         2         2         6
         4         1         2         2         2
         2         1         1         2         2
         2         2         2         6         6
         4         3         6         6         7
         4         2         3         6         6
         4         2         2         3         6
         4         3         6         7         7
         4         3         3         6         7
         4         2         3         3         6
         4         4         7         7         8
         4         3         4         7         7
         4         3         3         4         7
         4         4         7         8         8
         4         4         4         7         8
         4         3         4         4         7
         4         5         8         8         9
         4         4         5         8         8
         4         4         4         5         8
         4         5         8         9         9
         4         5         5         8         9
         4         4         5         5         8
         4         4         9         9        10
         4         4         5         9         9
         4         4         5         5         9
         4         4         9        10        10
         4         4         4         9        10
         4         4         4         5         9
         4         3        10        10        11
         4         3         4        10        10
         4         3         4         4        10
         4         3        10        11        11
         4         3         3        10        11
         4         3         3         4        10
         4         2        11        11        12
         4         2         3        11        11
         4         2         3         3        11
         4         2        11        12        12
         4         2         2        11        12
         4         2         2         3        11
         4         1         2        12        12
         4         1         2         2        12
         4         1         1         2        12
         4         7         7         7        13
         4         6         7         7         7
         2         6         6         7         7
         2         7         7        13        13
         4         8        13        13        14
         4         7         8        13        13
         4         7         7         8        13
         4         8        13        14        14
         4         8         8        13        14
         4         7         8         8        13
         4         9        14        14        15
         4         8         9        14        14
         4         8         8         9        14
         4         9        14        15        15
         4         9         9        14        15
         4         8         9         9        14
         4        10        15        15        16
         4         9        10        15        15
         4         9         9        10        15
         4        10        15        16        16
         4        10        10        15        16
         4         9        10        10        15
         4        11        16        16        17
         4        10        11        16        16
         4        10        10        11        16
         4        11        16        17        17
         4        11        11        16        17
         4        10        11        11        16
         4        11        12        17        17
         4        11        11        12        17
         4        11        12        12        17
         4        14        14        14        18
         4        13        14        14        14
         2        13        13        14        14
         2        14        14        18        18
         4        15        18        18        19
         4        14        15        18        18
         4        14        14        15        18
         4        15        18        19        19
         4        15        15        18        19
         4        14        15        15        18
         4        16        19        19        20
         4        15        16        19        19
         4        15        15        16        19
         4        16        19        20        20
         4        16        16        19        20
         4        15        16        16        19
         4        16        17        20        20
         4        16        16        17        20
         4        16        17        17        20
         4        19        19        19        21
         4        18        19        19        19
         2        18        18        19        19
         2        19        19        21        21
         4        19        20        21        21
         4        19        19        20        21
         4        19        20        20        21
