Automatically generated mesh
      16
Reciprocal lattice
    0.00000000000000    0.00000000000000    0.00000000000000             1
    0.33333333333333    0.00000000000000    0.00000000000000             4
    0.33333333333333    0.33333333333333    0.00000000000000             2
   -0.33333333333333    0.33333333333333    0.00000000000000             2
    0.00000000000000    0.00000000000000    0.16666666666667             2
    0.33333333333333    0.00000000000000    0.16666666666667             8
    0.33333333333333    0.33333333333333    0.16666666666667             4
   -0.33333333333333    0.33333333333333    0.16666666666667             4
    0.00000000000000    0.00000000000000    0.33333333333333             2
    0.33333333333333    0.00000000000000    0.33333333333333             8
    0.33333333333333    0.33333333333333    0.33333333333333             4
   -0.33333333333333    0.33333333333333    0.33333333333333             4
    0.00000000000000    0.00000000000000    0.50000000000000             1
    0.33333333333333    0.00000000000000    0.50000000000000             4
    0.33333333333333    0.33333333333333    0.50000000000000             2
   -0.33333333333333    0.33333333333333    0.50000000000000             2
Tetrahedra
        75    0.00308641975309
         8         2         2         3         6
         4         1         2         2         6
         4         1         2         5         6
         4         2         3         6         7
         8         2         6         6         7
         4         2         5         6         6
         4         2         3         4         7
         4         2         2         3         7
         4         2         2         6         7
         4         2         4         7         8
         4         2         6         7         8
         4         1         2         4         8
         4         1         2         6         8
         4         1         5         6         8
         4         2         3         4         6
         4         2         3         6         6
         4         3         4         6         8
         4         3         6         7         8
         4         3         6         6         7
         4         3         4         4         8
         4         3         4         7         8
         4         4         7         8         8
         4         1         2         4         5
         4         2         4         5         6
         4         4         5         6         8
         8         6         6         7        10
         4         5         6         6        10
         4         5         6         9        10
         4         6         7        10        11
         8         6        10        10        11
         4         6         9        10        10
         4         6         7         8        11
         4         6         6         7        11
         4         6         6        10        11
         4         6         8        11        12
         4         6        10        11        12
         4         5         6         8        12
         4         5         6        10        12
         4         5         9        10        12
         4         6         7         8        10
         4         6         7        10        10
         4         7         8        10        12
         4         7        10        11        12
         4         7        10        10        11
         4         7         8         8        12
         4         7         8        11        12
         4         8        11        12        12
         4         5         6         8         9
         4         6         8         9        10
         4         8         9        10        12
         8        10        10        11        14
         4         9        10        10        14
         4         9        10        13        14
         4        10        11        14        15
         8        10        14        14        15
         4        10        13        14        14
         4        10        11        12        15
         4        10        10        11        15
         4        10        10        14        15
         4        10        12        15        16
         4        10        14        15        16
         4         9        10        12        16
         4         9        10        14        16
         4         9        13        14        16
         4        10        11        12        14
         4        10        11        14        14
         4        11        12        14        16
         4        11        14        15        16
         4        11        14        14        15
         4        11        12        12        16
         4        11        12        15        16
         4        12        15        16        16
         4         9        10        12        13
         4        10        12        13        14
         4        12        13        14        16
