 running on   12 nodes
 distr:  one band on    1 nodes,   12 groups
 vasp.5.2.11 25Nov10 complex 
 POSCAR found type information on POSCAR  C 
 POSCAR found :  1 types and       8 ions
 LDA part: xc-table for Pade appr. of Perdew
 POSCAR found type information on POSCAR  C 
 POSCAR found :  1 types and       8 ions
 POSCAR, INCAR and KPOINTS ok, starting setup
 WARNING: small aliasing (wrap around) errors must be expected
 FFT: planning ...(           1 )
 WAVECAR not read
 entering main loop
       N       E                     dE             d eps       ncg     rms          rms(c)
DAV:   1     0.969718054349E+02    0.96972E+02   -0.17037E+04  1008   0.122E+03
DAV:   2    -0.557952065288E+02   -0.15277E+03   -0.15063E+03  1320   0.236E+02
DAV:   3    -0.604691148156E+02   -0.46739E+01   -0.46629E+01  1440   0.431E+01
DAV:   4    -0.605001012117E+02   -0.30986E-01   -0.30982E-01  1248   0.379E+00
DAV:   5    -0.605005496760E+02   -0.44846E-03   -0.44843E-03  1440   0.428E-01    0.117E+01
DAV:   6    -0.564297149121E+02    0.40708E+01   -0.40219E+00  1032   0.107E+01    0.594E+00
DAV:   7    -0.553736611033E+02    0.10561E+01   -0.36560E+00  1116   0.105E+01    0.105E+00
DAV:   8    -0.554148702922E+02   -0.41209E-01   -0.48840E-02  1440   0.142E+00    0.730E-02
DAV:   9    -0.554153189987E+02   -0.44871E-03   -0.45440E-04  1392   0.151E-01    0.431E-02
DAV:  10    -0.554154413542E+02   -0.12236E-03   -0.10383E-04  1200   0.787E-02    0.611E-03
DAV:  11    -0.554154422949E+02   -0.94072E-06   -0.11513E-05   900   0.212E-02
   1 F= -.55415442E+02 E0= -.55415442E+02  d E =-.554154E+02
 curvature:   0.00 expect dE= 0.000E+00 dE for cont linesearch  0.000E+00
 trial: gam= 0.00000 g(F)=  0.631E-06 g(S)=  0.218E+02 ort = 0.000E+00 (trialstep = 0.100E+01)
 search vector abs. value=  0.218E+02
 bond charge predicted
       N       E                     dE             d eps       ncg     rms          rms(c)
DAV:   1    -0.955899632697E+02   -0.40175E+02   -0.98520E+02  1008   0.163E+02    0.191E+01
DAV:   2    -0.777903878226E+02    0.17800E+02   -0.24928E+01  1176   0.318E+01    0.119E+01
DAV:   3    -0.676109569491E+02    0.10179E+02   -0.35646E+01  1404   0.281E+01    0.367E+00
DAV:   4    -0.674332393649E+02    0.17772E+00   -0.11138E+00  1128   0.479E+00    0.169E+00
DAV:   5    -0.674582158531E+02   -0.24976E-01   -0.17056E-01  1188   0.266E+00    0.398E-01
DAV:   6    -0.674548279902E+02    0.33879E-02   -0.48592E-03  1344   0.391E-01    0.181E-01
DAV:   7    -0.674540165308E+02    0.81146E-03   -0.32162E-03  1212   0.299E-01    0.238E-02
DAV:   8    -0.674539827233E+02    0.33808E-04   -0.11639E-04  1020   0.580E-02
   2 F= -.67453983E+02 E0= -.67453983E+02  d E =-.120385E+02
 trial-energy change:  -12.038540  1 .order  -14.286549  -21.788039   -6.785059
 step:   1.4522(harm=  1.4522)  dis= 0.00008  next Energy=   -71.236255 (dE=-0.158E+02)
 bond charge predicted
       N       E                     dE             d eps       ncg     rms          rms(c)
DAV:   1    -0.716937723291E+02   -0.42398E+01   -0.11344E+02  1032   0.586E+01    0.686E+00
DAV:   2    -0.696570994395E+02    0.20367E+01   -0.27837E+00  1020   0.938E+00    0.399E+00
DAV:   3    -0.685529951014E+02    0.11041E+01   -0.33964E+00  1152   0.892E+00    0.965E-01
DAV:   4    -0.685470499373E+02    0.59452E-02   -0.70709E-02  1044   0.134E+00    0.646E-01
DAV:   5    -0.685390771651E+02    0.79728E-02   -0.29772E-02  1152   0.103E+00    0.172E-01
DAV:   6    -0.685381757104E+02    0.90145E-03   -0.13977E-03  1380   0.188E-01    0.901E-02
DAV:   7    -0.685379586513E+02    0.21706E-03   -0.72958E-04  1128   0.138E-01    0.478E-03
DAV:   8    -0.685379606909E+02   -0.20397E-05   -0.83592E-06   720   0.172E-02
   3 F= -.68537961E+02 E0= -.68537961E+02  d E =-.131225E+02
 curvature:  -0.73 expect dE=-0.281E+01 dE for cont linesearch -0.795E-02
 trial: gam= 0.15535 g(F)=  0.162E-04 g(S)=  0.387E+01 ort = 0.489E+00 (trialstep = 0.109E+01)
 search vector abs. value=  0.455E+01
 bond charge predicted
       N       E                     dE             d eps       ncg     rms          rms(c)
DAV:   1    -0.692779056091E+02   -0.73995E+00   -0.28144E+02  1008   0.113E+02    0.983E+00
DAV:   2    -0.661458176905E+02    0.31321E+01   -0.57394E+00  1344   0.133E+01    0.605E+00
DAV:   3    -0.641112332826E+02    0.20346E+01   -0.56750E+00  1188   0.123E+01    0.135E+00
DAV:   4    -0.640995818427E+02    0.11651E-01   -0.15114E-01  1056   0.195E+00    0.846E-01
DAV:   5    -0.640973892109E+02    0.21926E-02   -0.53869E-02  1080   0.140E+00    0.223E-01
DAV:   6    -0.640959817150E+02    0.14075E-02   -0.19936E-03  1416   0.245E-01    0.109E-01
DAV:   7    -0.640955921911E+02    0.38952E-03   -0.16033E-03  1080   0.202E-01    0.929E-03
DAV:   8    -0.640955865434E+02    0.56477E-05   -0.34674E-05   840   0.345E-02
   4 F= -.64095587E+02 E0= -.64095587E+02  d E =0.444237E+01
 trial-energy change:    4.442374  1 .order    5.023445   -4.306369   14.353259
 step:   0.2916(harm=  0.2517)  dis= 0.00008  next Energy=   -69.124801 (dE=-0.587E+00)
 bond charge predicted
       N       E                     dE             d eps       ncg     rms          rms(c)
DAV:   1    -0.712904414235E+02   -0.71948E+01   -0.13606E+02  1008   0.764E+01    0.675E+00
DAV:   2    -0.699474400363E+02    0.13430E+01   -0.23035E+00  1272   0.844E+00    0.407E+00
DAV:   3    -0.691607538522E+02    0.78669E+00   -0.15102E+00  1152   0.632E+00    0.496E-01
DAV:   4    -0.691894830104E+02   -0.28729E-01   -0.77492E-02  1056   0.125E+00    0.246E-01
DAV:   5    -0.691913789533E+02   -0.18959E-02   -0.48745E-03  1140   0.486E-01    0.937E-02
DAV:   6    -0.691911977283E+02    0.18123E-03   -0.12905E-04  1068   0.738E-02    0.587E-02
DAV:   7    -0.691911662985E+02    0.31430E-04   -0.17852E-04   852   0.784E-02
   5 F= -.69191166E+02 E0= -.69191166E+02  d E =-.653206E+00
 curvature:  -0.14 expect dE=-0.556E-02 dE for cont linesearch -0.467E-02
 ZBRENT: interpolating
 opt :   0.3142  next Energy=   -69.195497 (dE=-0.658E+00)
 bond charge predicted
       N       E                     dE             d eps       ncg     rms          rms(c)
DAV:   1    -0.691982427707E+02   -0.70450E-02   -0.10818E-01  1008   0.214E+00    0.190E-01
DAV:   2    -0.691971937958E+02    0.10490E-02   -0.20062E-03  1308   0.235E-01    0.117E-01
DAV:   3    -0.691965436071E+02    0.65019E-03   -0.14594E-03  1164   0.199E-01    0.188E-02
DAV:   4    -0.691965413028E+02    0.23043E-05   -0.45103E-05   816   0.338E-02    0.128E-02
DAV:   5    -0.691965395255E+02    0.17772E-05   -0.17406E-05   804   0.281E-02
   6 F= -.69196540E+02 E0= -.69196540E+02  d E =-.658579E+00
 curvature:  -0.13 expect dE=-0.252E-03 dE for cont linesearch -0.179E-03
 ZBRENT: interpolating
 opt :   0.3199  next Energy=   -69.196764 (dE=-0.659E+00)
 bond charge predicted
       N       E                     dE             d eps       ncg     rms          rms(c)
DAV:   1    -0.691968857979E+02   -0.34450E-03   -0.69626E-03  1056   0.545E-01    0.480E-02
DAV:   2    -0.691968175341E+02    0.68264E-04   -0.12742E-04  1056   0.599E-02    0.292E-02
DAV:   3    -0.691967778349E+02    0.39699E-04   -0.94402E-05   576   0.517E-02    0.416E-03
DAV:   4    -0.691967773105E+02    0.52443E-06   -0.67316E-06   576   0.161E-02    0.249E-03
DAV:   5    -0.691967767759E+02    0.53461E-06   -0.10179E-06   576   0.632E-03
   7 F= -.69196777E+02 E0= -.69196777E+02  d E =-.658816E+00
 curvature:  -0.17 expect dE=-0.208E-04 dE for cont linesearch -0.843E-09
 ZBRENT: interpolating
 opt :   0.3199  next Energy=   -69.196777 (dE=-0.659E+00)
 bond charge predicted
       N       E                     dE             d eps       ncg     rms          rms(c)
DAV:   1    -0.691967768060E+02    0.50449E-06   -0.18611E-07   576   0.278E-03    0.398E-04
DAV:   2    -0.691967767994E+02    0.65761E-08   -0.34304E-08   576   0.113E-03    0.252E-04
DAV:   3    -0.691967767961E+02    0.33835E-08   -0.10580E-08   576   0.653E-04    0.247E-05
DAV:   4    -0.691967768004E+02   -0.43642E-08   -0.22848E-09   576   0.285E-04    0.124E-05
DAV:   5    -0.691967768087E+02   -0.82553E-08   -0.69526E-10   552   0.148E-04
   8 F= -.69196777E+02 E0= -.69196777E+02  d E =-.658816E+00
 curvature:  -0.17 expect dE=-0.211E-04 dE for cont linesearch -0.610E-08
 ZBRENT: interpolating
 opt :   0.3199  next Energy=   -69.196777 (dE=-0.659E+00)
 bond charge predicted
       N       E                     dE             d eps       ncg     rms          rms(c)
DAV:   1    -0.691967768164E+02   -0.15945E-07   -0.13623E-08   504   0.794E-04    0.646E-05
DAV:   2    -0.691967768202E+02   -0.38490E-08   -0.66547E-10   504   0.195E-04    0.404E-05
DAV:   3    -0.691967768257E+02   -0.54497E-08   -0.19929E-10   504   0.892E-05    0.660E-06
DAV:   4    -0.691967768249E+02    0.77830E-09   -0.81477E-12   504   0.296E-05    0.531E-06
DAV:   5    -0.691967768246E+02    0.30718E-09    0.74577E-12   504   0.145E-05
   9 F= -.69196777E+02 E0= -.69196777E+02  d E =-.658816E+00
 curvature:  -0.01 expect dE=-0.778E-06 dE for cont linesearch -0.119E-09
 ZBRENT: interpolating
 opt :   0.3199  next Energy=   -69.196777 (dE=-0.659E+00)
 bond charge predicted
       N       E                     dE             d eps       ncg     rms          rms(c)
DAV:   1    -0.691967768260E+02   -0.11530E-08   -0.81151E-10   504   0.192E-04    0.156E-05
DAV:   2    -0.691967768268E+02   -0.80308E-09   -0.22626E-11   504   0.465E-05    0.989E-06
DAV:   3    -0.691967768281E+02   -0.12317E-08    0.22725E-12   504   0.204E-05    0.156E-06
DAV:   4    -0.691967768278E+02    0.24625E-09    0.10371E-11   504   0.599E-06    0.124E-06
DAV:   5    -0.691967768276E+02    0.22828E-09    0.13326E-11   504   0.307E-06
  10 F= -.69196777E+02 E0= -.69196777E+02  d E =-.658816E+00
 curvature:  -0.00 expect dE=-0.498E-06 dE for cont linesearch -0.635E-10
 ZBRENT: interpolating
 opt :   0.3199  next Energy=   -69.196777 (dE=-0.659E+00)
 bond charge predicted
       N       E                     dE             d eps       ncg     rms          rms(c)
DAV:   1    -0.691967768282E+02   -0.36448E-09   -0.75915E-11   504   0.623E-05    0.513E-06
DAV:   2    -0.691967768284E+02   -0.24670E-09    0.13454E-11   504   0.151E-05    0.325E-06
DAV:   3    -0.691967768288E+02   -0.36107E-09    0.12525E-11   504   0.661E-06    0.515E-07
DAV:   4    -0.691967768288E+02    0.39563E-10    0.14922E-11   504   0.187E-06    0.410E-07
DAV:   5    -0.691967768287E+02    0.10550E-09    0.14625E-11   504   0.951E-07
  11 F= -.69196777E+02 E0= -.69196777E+02  d E =-.658816E+00
 curvature:  -0.00 expect dE=-0.214E-06 dE for cont linesearch -0.256E-10
 ZBRENT: interpolating
 opt :   0.3199  next Energy=   -69.196777 (dE=-0.659E+00)
 bond charge predicted
       N       E                     dE             d eps       ncg     rms          rms(c)
DAV:   1    -0.691967768289E+02   -0.90949E-10    0.64178E-12   504   0.220E-05    0.182E-06
DAV:   2    -0.691967768290E+02   -0.11323E-09    0.16599E-11   504   0.532E-06    0.115E-06
DAV:   3    -0.691967768291E+02   -0.11300E-09    0.12323E-11   504   0.233E-06    0.182E-07
DAV:   4    -0.691967768291E+02    0.20236E-10    0.10025E-11   504   0.651E-07    0.145E-07
DAV:   5    -0.691967768290E+02    0.67757E-10    0.18044E-11   504   0.331E-07
  12 F= -.69196777E+02 E0= -.69196777E+02  d E =-.658816E+00
 curvature:  -0.00 expect dE=-0.836E-07 dE for cont linesearch -0.977E-11
 ZBRENT: interpolating
 opt :   0.3199  next Energy=   -69.196777 (dE=-0.659E+00)
 bond charge predicted
       N       E                     dE             d eps       ncg     rms          rms(c)
DAV:   1    -0.691967768291E+02   -0.31832E-11    0.14581E-11   504   0.803E-06    0.664E-07
DAV:   2    -0.691967768291E+02   -0.23192E-10    0.94776E-12   504   0.194E-06    0.420E-07
DAV:   3    -0.691967768292E+02   -0.10505E-09    0.12491E-11   504   0.849E-07    0.664E-08
DAV:   4    -0.691967768292E+02   -0.68212E-11    0.15312E-11   504   0.237E-07    0.529E-08
DAV:   5    -0.691967768292E+02    0.36835E-10    0.16768E-11   504   0.120E-07
  13 F= -.69196777E+02 E0= -.69196777E+02  d E =-.658816E+00
 curvature:  -0.00 expect dE=-0.316E-07 dE for cont linesearch -0.366E-11
 ZBRENT: interpolating
 opt :   0.3199  next Energy=   -69.196777 (dE=-0.659E+00)
 bond charge predicted
       N       E                     dE             d eps       ncg     rms          rms(c)
DAV:   1    -0.691967768292E+02    0.14097E-10    0.10649E-11   504   0.295E-06    0.244E-07
DAV:   2    -0.691967768292E+02   -0.18190E-11    0.11807E-11   504   0.712E-07    0.155E-07
DAV:   3    -0.691967768292E+02   -0.20464E-11    0.11576E-11   504   0.312E-07    0.244E-08
DAV:   4    -0.691967768293E+02   -0.58435E-10    0.15802E-11   504   0.869E-08    0.194E-08
DAV:   5    -0.691967768292E+02    0.53660E-10    0.15256E-11   504   0.440E-08
  14 F= -.69196777E+02 E0= -.69196777E+02  d E =-.658816E+00
 curvature:  -0.00 expect dE=-0.118E-07 dE for cont linesearch -0.136E-11
 ZBRENT:  accuracy reached
 opt :   0.0000  next Energy=     0.000000 (dE= 0.685E+02)
 bond charge predicted
       N       E                     dE             d eps       ncg     rms          rms(c)
DAV:   1    -0.688567550997E+02    0.34002E+00   -0.20998E+01  1008   0.296E+01    0.265E+00
DAV:   2    -0.686599141939E+02    0.19684E+00   -0.37807E-01  1332   0.325E+00    0.162E+00
DAV:   3    -0.685379905412E+02    0.12192E+00   -0.23833E-01  1152   0.253E+00    0.216E-01
DAV:   4    -0.685384277314E+02   -0.43719E-03   -0.99472E-03  1116   0.480E-01    0.103E-01
DAV:   5    -0.685379798350E+02    0.44790E-03   -0.85598E-04  1236   0.202E-01    0.303E-02
DAV:   6    -0.685379722133E+02    0.76217E-05   -0.12953E-05  1068   0.203E-02
  15 F= -.68537972E+02 E0= -.68537972E+02  d E =-.115223E-04
 curvature:   0.00 expect dE= 0.000E+00 dE for cont linesearch  0.000E+00
 ZBRENT: fatal error in bracketing
     please rerun with smaller EDIFF, or copy CONTCAR
     to POSCAR and continue
