 running on   20 nodes
 distr:  one band on    1 nodes,   20 groups
 vasp.5.2.11 25Nov10 complex 
 POSCAR found type information on POSCAR  C 
 POSCAR found :  1 types and       8 ions
 LDA part: xc-table for Pade appr. of Perdew
 POSCAR found type information on POSCAR  C 
 POSCAR found :  1 types and       8 ions
 generate k-points for:    3    3    6
 POSCAR, INCAR and KPOINTS ok, starting setup
 WARNING: small aliasing (wrap around) errors must be expected
 FFT: planning ...(           1 )
 WAVECAR not read
 entering main loop
       N       E                     dE             d eps       ncg     rms          rms(c)
DAV:   1     0.251348406151E+02    0.25135E+02   -0.15826E+04  1280   0.732E+02
DAV:   2    -0.722337661643E+02   -0.97369E+02   -0.92805E+02  1780   0.155E+02
DAV:   3    -0.745161020562E+02   -0.22823E+01   -0.22707E+01  1500   0.194E+01
DAV:   4    -0.745220855863E+02   -0.59835E-02   -0.59710E-02  1780   0.130E+00
DAV:   5    -0.745221056213E+02   -0.20035E-04   -0.20171E-04  1500   0.670E-02    0.111E+01
DAV:   6    -0.713108171849E+02    0.32113E+01   -0.17878E+00  1600   0.543E+00    0.585E+00
DAV:   7    -0.703377845523E+02    0.97303E+00   -0.20017E+00  1620   0.583E+00    0.904E-01
DAV:   8    -0.703463634515E+02   -0.85789E-02   -0.77687E-02  1540   0.105E+00    0.511E-01
DAV:   9    -0.703478975527E+02   -0.15341E-02   -0.48037E-03  1420   0.295E-01    0.145E-01
DAV:  10    -0.703481356433E+02   -0.23809E-03   -0.62132E-03  1680   0.836E-02    0.144E-01
DAV:  11    -0.703481750692E+02   -0.39426E-04   -0.83171E-05  1160   0.468E-02
   1 F= -.70348175E+02 E0= -.70348175E+02  d E =-.703482E+02
 curvature:   0.00 expect dE= 0.000E+00 dE for cont linesearch  0.000E+00
 trial: gam= 0.00000 g(F)=  0.362E-01 g(S)=  0.319E+01 ort = 0.000E+00 (trialstep = 0.100E+01)
 search vector abs. value=  0.322E+01
 bond charge predicted
       N       E                     dE             d eps       ncg     rms          rms(c)
DAV:   1    -0.763004769098E+02   -0.59523E+01   -0.12674E+02  1380   0.439E+01    0.828E+00
DAV:   2    -0.734488041662E+02    0.28517E+01   -0.44338E+00  1820   0.830E+00    0.473E+00
DAV:   3    -0.721825409656E+02    0.12663E+01   -0.23637E+00  1560   0.631E+00    0.786E-01
DAV:   4    -0.721824962098E+02    0.44756E-04   -0.16638E-01  1560   0.149E+00    0.549E-01
DAV:   5    -0.721761771820E+02    0.63190E-02   -0.55670E-03  1600   0.342E-01    0.195E-01
DAV:   6    -0.721744304875E+02    0.17467E-02   -0.31914E-03  1580   0.270E-01    0.799E-02
DAV:   7    -0.721746166847E+02   -0.18620E-03   -0.32957E-04  1680   0.715E-02    0.296E-03
DAV:   8    -0.721746376284E+02   -0.20944E-04   -0.68211E-06   760   0.113E-02
   2 F= -.72174638E+02 E0= -.72174638E+02  d E =-.182646E+01
 trial-energy change:   -1.826463  1 .order   -2.367136   -3.224775   -1.509498
 step:   1.8800(harm=  1.8800)  dis= 0.02406  next Energy=   -73.379514 (dE=-0.303E+01)
 bond charge predicted
       N       E                     dE             d eps       ncg     rms          rms(c)
DAV:   1    -0.751235774277E+02   -0.29490E+01   -0.74699E+01  1360   0.346E+01    0.639E+00
DAV:   2    -0.733560179668E+02    0.17676E+01   -0.29138E+00  1740   0.663E+00    0.372E+00
DAV:   3    -0.725297760881E+02    0.82624E+00   -0.16070E+00  1700   0.512E+00    0.715E-01
DAV:   4    -0.725270536667E+02    0.27224E-02   -0.11617E-01  1460   0.122E+00    0.473E-01
DAV:   5    -0.725223873463E+02    0.46663E-02   -0.56865E-03  1680   0.346E-01    0.125E-01
DAV:   6    -0.725217572483E+02    0.63010E-03   -0.16358E-03  1720   0.189E-01    0.579E-02
DAV:   7    -0.725218434553E+02   -0.86207E-04   -0.17456E-04  1300   0.509E-02
   3 F= -.72521843E+02 E0= -.72521843E+02  d E =-.217367E+01
 curvature:  -0.94 expect dE=-0.335E+01 dE for cont linesearch -0.534E-07
 trial: gam= 1.10417 g(F)=  0.309E+01 g(S)=  0.467E+00 ort =-0.428E-03 (trialstep = 0.506E+00)
 search vector abs. value=  0.749E+01
 bond charge predicted
       N       E                     dE             d eps       ncg     rms          rms(c)
DAV:   1    -0.744726153697E+02   -0.19509E+01   -0.14332E+02  1360   0.470E+01    0.591E+00
DAV:   2    -0.731450676418E+02    0.13275E+01   -0.39299E+00  1780   0.797E+00    0.359E+00
DAV:   3    -0.724076918417E+02    0.73738E+00   -0.16379E+00  1680   0.519E+00    0.790E-01
DAV:   4    -0.723990601050E+02    0.86317E-02   -0.11878E-01  1480   0.129E+00    0.433E-01
DAV:   5    -0.723964436998E+02    0.26164E-02   -0.84135E-03  1580   0.405E-01    0.517E-02
DAV:   6    -0.723965166150E+02   -0.72915E-04   -0.45391E-04  1600   0.920E-02
   4 F= -.72396517E+02 E0= -.72396517E+02  d E =0.125327E+00
 trial-energy change:    0.125327  1 .order    0.010445   -1.802180    1.823070
 step:   0.2278(harm=  0.2517)  dis= 0.02373  next Energy=   -72.916914 (dE=-0.395E+00)
 bond charge predicted
       N       E                     dE             d eps       ncg     rms          rms(c)
DAV:   1    -0.735207395068E+02   -0.11243E+01   -0.43580E+01  1340   0.269E+01    0.340E+00
DAV:   2    -0.731165430135E+02    0.40420E+00   -0.10244E+00  1800   0.413E+00    0.199E+00
DAV:   3    -0.729137532371E+02    0.20279E+00   -0.41693E-01  1660   0.264E+00    0.312E-01
DAV:   4    -0.729136986955E+02    0.54542E-04   -0.25164E-02  1560   0.622E-01    0.175E-01
DAV:   5    -0.729133865905E+02    0.31210E-03   -0.15832E-03  1620   0.177E-01    0.238E-02
DAV:   6    -0.729133747534E+02    0.11837E-04   -0.45614E-05   980   0.264E-02
   5 F= -.72913375E+02 E0= -.72913375E+02  d E =-.391531E+00
 curvature:  -0.26 expect dE=-0.539E-01 dE for cont linesearch -0.720E-02
 ZBRENT: interpolating
 opt :   0.2021  next Energy=   -72.919204 (dE=-0.397E+00)
 bond charge predicted
       N       E                     dE             d eps       ncg     rms          rms(c)
DAV:   1    -0.729180816094E+02   -0.46950E-02   -0.36309E-01  1440   0.248E+00    0.300E-01
DAV:   2    -0.729148795707E+02    0.32020E-02   -0.90656E-03  1680   0.387E-01    0.179E-01
DAV:   3    -0.729131373995E+02    0.17422E-02   -0.33434E-03  1720   0.235E-01    0.305E-02
DAV:   4    -0.729131408905E+02   -0.34911E-05   -0.21055E-04  1320   0.560E-02    0.166E-02
DAV:   5    -0.729131501945E+02   -0.93040E-05   -0.13378E-05   940   0.169E-02
   6 F= -.72913150E+02 E0= -.72913150E+02  d E =-.391307E+00
 curvature:  -0.21 expect dE=-0.291E-01 dE for cont linesearch -0.125E-05
 trial: gam= 0.02172 g(F)=  0.245E-02 g(S)=  0.135E+00 ort = 0.664E-02 (trialstep = 0.445E+00)
 search vector abs. value=  0.141E+00
 bond charge predicted
       N       E                     dE             d eps       ncg     rms          rms(c)
DAV:   1    -0.729280517099E+02   -0.14911E-01   -0.73092E-01  1660   0.387E+00    0.523E-01
DAV:   2    -0.729233831258E+02    0.46686E-02   -0.13388E-02  1740   0.437E-01    0.323E-01
DAV:   3    -0.729206354092E+02    0.27477E-02   -0.34620E-03  1700   0.235E-01    0.252E-02
DAV:   4    -0.729205816418E+02    0.53767E-04   -0.19107E-04  1300   0.491E-02    0.174E-02
DAV:   5    -0.729204926062E+02    0.89036E-04   -0.19245E-05  1020   0.201E-02
   7 F= -.72920493E+02 E0= -.72920493E+02  d E =-.734241E-02
 trial-energy change:   -0.007342  1 .order   -0.014376   -0.061119    0.032367
 step:   0.2413(harm=  0.2912)  dis= 0.00026  next Energy=   -72.928586 (dE=-0.154E-01)
 bond charge predicted
       N       E                     dE             d eps       ncg     rms          rms(c)
DAV:   1    -0.729310649292E+02   -0.10483E-01   -0.15321E-01  1620   0.177E+00    0.239E-01
DAV:   2    -0.729297551221E+02    0.13098E-02   -0.27357E-03  1640   0.200E-01    0.148E-01
DAV:   3    -0.729287339085E+02    0.10212E-02   -0.71060E-04  1640   0.107E-01    0.114E-02
DAV:   4    -0.729287678249E+02   -0.33916E-04   -0.39079E-05   740   0.226E-02    0.760E-03
DAV:   5    -0.729288106217E+02   -0.42797E-04   -0.48839E-06   700   0.101E-02
   8 F= -.72928811E+02 E0= -.72928811E+02  d E =-.156604E-01
 curvature:  -0.13 expect dE=-0.697E-03 dE for cont linesearch -0.585E-03
 ZBRENT: interpolating
 opt :   0.2932  next Energy=   -72.929455 (dE=-0.163E-01)
 bond charge predicted
       N       E                     dE             d eps       ncg     rms          rms(c)
DAV:   1    -0.729285874343E+02    0.18039E-03   -0.99199E-03  1680   0.450E-01    0.611E-02
DAV:   2    -0.729285740790E+02    0.13355E-04   -0.18141E-04  1400   0.512E-02    0.379E-02
DAV:   3    -0.729286064847E+02   -0.32406E-04   -0.45224E-05  1120   0.276E-02    0.269E-03
DAV:   4    -0.729285988160E+02    0.76687E-05   -0.40366E-06   700   0.812E-03    0.193E-03
DAV:   5    -0.729285882070E+02    0.10609E-04   -0.34814E-07   660   0.271E-03
   9 F= -.72928588E+02 E0= -.72928588E+02  d E =-.154380E-01
 curvature:  -0.15 expect dE=-0.672E-04 dE for cont linesearch -0.401E-07
 ZBRENT: interpolating
 opt :   0.2937  next Energy=   -72.928588 (dE=-0.154E-01)
 bond charge predicted
       N       E                     dE             d eps       ncg     rms          rms(c)
DAV:   1    -0.729285841100E+02    0.14706E-04   -0.63973E-07   700   0.371E-03    0.483E-04
DAV:   2    -0.729285840584E+02    0.51525E-07   -0.38346E-08   700   0.975E-04    0.323E-04
DAV:   3    -0.729285838450E+02    0.21343E-06   -0.39922E-09   700   0.321E-04    0.523E-05
DAV:   4    -0.729285837974E+02    0.47599E-07   -0.32987E-10   700   0.879E-05    0.200E-05
DAV:   5    -0.729285837730E+02    0.24375E-07   -0.38321E-11   700   0.304E-05
  10 F= -.72928584E+02 E0= -.72928584E+02  d E =-.154336E-01
 curvature:  -0.15 expect dE=-0.681E-04 dE for cont linesearch -0.708E-10
 trial: gam=-0.00579 g(F)=  0.152E-03 g(S)=  0.305E-03 ort = 0.819E-05 (trialstep = 0.415E+00)
 search vector abs. value=  0.462E-03
 bond charge predicted
       N       E                     dE             d eps       ncg     rms          rms(c)
DAV:   1    -0.729278489049E+02    0.73489E-03   -0.63253E-03  1500   0.326E-01    0.406E-02
DAV:   2    -0.729278058890E+02    0.43016E-04   -0.15429E-04  1320   0.519E-02    0.242E-02
DAV:   3    -0.729277934064E+02    0.12483E-04   -0.60404E-05  1000   0.335E-02    0.370E-03
DAV:   4    -0.729277920440E+02    0.13624E-05   -0.50162E-06   700   0.973E-03    0.199E-03
DAV:   5    -0.729277908629E+02    0.11811E-05   -0.31890E-07   700   0.254E-03
  11 F= -.72927791E+02 E0= -.72927791E+02  d E =0.792910E-03
 trial-energy change:    0.000793  1 .order   -0.000084   -0.000190    0.000021
 step:   0.3733(harm=  0.3733)  dis= 0.00031  next Energy=   -72.928669 (dE=-0.854E-04)
 bond charge predicted
       N       E                     dE             d eps       ncg     rms          rms(c)
DAV:   1    -0.729278833578E+02   -0.91314E-04   -0.61276E-05   700   0.326E-02    0.403E-03
DAV:   2    -0.729278827183E+02    0.63947E-06   -0.31770E-06   700   0.815E-03    0.240E-03
DAV:   3    -0.729278805781E+02    0.21401E-05   -0.44064E-07   700   0.317E-03    0.257E-04
DAV:   4    -0.729278804350E+02    0.14311E-06   -0.37462E-08   700   0.863E-04    0.182E-04
DAV:   5    -0.729278802538E+02    0.18119E-06   -0.23404E-09   700   0.225E-04
  12 F= -.72927880E+02 E0= -.72927880E+02  d E =0.703519E-03
 curvature:  -0.19 expect dE=-0.789E-04 dE for cont linesearch -0.500E-08
 trial: gam= 0.90812 g(F)=  0.228E-03 g(S)=  0.190E-03 ort = 0.350E-05 (trialstep = 0.233E+00)
 search vector abs. value=  0.806E-03
 bond charge predicted
       N       E                     dE             d eps       ncg     rms          rms(c)
DAV:   1    -0.729286793678E+02   -0.79893E-03   -0.19902E-03  1440   0.180E-01    0.326E-02
DAV:   2    -0.729285725770E+02    0.10679E-03   -0.68061E-05   760   0.322E-02    0.186E-02
DAV:   3    -0.729284756150E+02    0.96962E-04   -0.40132E-05  1220   0.258E-02    0.287E-03
DAV:   4    -0.729284806005E+02   -0.49855E-05   -0.31702E-06   660   0.766E-03    0.224E-03
DAV:   5    -0.729284830740E+02   -0.24736E-05   -0.21914E-07   640   0.193E-03
  13 F= -.72928483E+02 E0= -.72928483E+02  d E =-.602820E-03
 trial-energy change:   -0.000603  1 .order   -0.000083   -0.000098   -0.000068
 step:   0.7590(harm=  0.7590)  dis= 0.00020  next Energy=   -72.928040 (dE=-0.160E-03)
 bond charge predicted
       N       E                     dE             d eps       ncg     rms          rms(c)
DAV:   1    -0.729303812841E+02   -0.19007E-02   -0.10166E-02  1380   0.407E-01    0.736E-02
DAV:   2    -0.729300142392E+02    0.36704E-03   -0.36111E-04  1660   0.728E-02    0.420E-02
DAV:   3    -0.729297381420E+02    0.27610E-03   -0.19063E-04  1480   0.552E-02    0.640E-03
DAV:   4    -0.729297500142E+02   -0.11872E-04   -0.14296E-05   720   0.151E-02    0.476E-03
DAV:   5    -0.729297608002E+02   -0.10786E-04   -0.10530E-06   640   0.463E-03
  14 F= -.72929761E+02 E0= -.72929761E+02  d E =-.188055E-02
 curvature:  -0.73 expect dE=-0.150E-04 dE for cont linesearch -0.189E-05
 trial: gam=-0.07261 g(F)=  0.485E-06 g(S)=  0.203E-04 ort = 0.459E-04 (trialstep = 0.338E+00)
 search vector abs. value=  0.183E-04
 reached required accuracy - stopping structural energy minimisation
 writing wavefunctions
