 vasp.5.2.11 25Nov10 complex 
 executed on             LinuxIFC date 2018.12.14  22:42:11
 running on   20 nodes
 distr:  one band on    1 nodes,   20 groups


--------------------------------------------------------------------------------------------------------


 INCAR:
 POTCAR:   PAW_PBE C 08Apr2002                    
 POTCAR:   PAW_PBE C 08Apr2002                    
   VRHFIN =C: s2p2                                                              
   LEXCH  = PE                                                                  
   EATOM  =   147.1560 eV,   10.8157 Ry                                         
                                                                                
   TITEL  = PAW_PBE C 08Apr2002                                                 
   LULTRA =        F    use ultrasoft PP ?                                      
   IUNSCR =        0    unscreen: 0-lin 1-nonlin 2-no                           
   RPACOR =     .000    partial core radius                                     
   POMASS =   12.011; ZVAL   =    4.000    mass and valenz                      
   RCORE  =    1.500    outmost cutoff radius                                   
   RWIGS  =    1.630; RWIGS  =     .863    wigner-seitz radius (au A)           
   ENMAX  =  400.000; ENMIN  =  300.000 eV                                      
   ICORE  =        2    local potential                                         
   LCOR   =        T    correct aug charges                                     
   LPAW   =        T    paw PP                                                  
   EAUG   =  644.873                                                            
   DEXC   =     .000                                                            
   RMAX   =    2.266    core radius for proj-oper                               
   RAUG   =    1.300    factor for augmentation sphere                          
   RDEP   =    1.501    radius for radial grids                                 
   RDEPT  =    1.300    core radius for aug-charge                              
   QCUT   =   -5.516; QGAM   =   11.032    optimization parameters              
                                                                                
   Description                                                                  
     l     E      TYP  RCUT    TYP  RCUT                                        
     0   .000     23  1.200                                                     
     0   .000     23  1.200                                                     
     1   .000     23  1.500                                                     
     1  2.500     23  1.500                                                     
     2   .000      7  1.500                                                     
  local pseudopotential read in
  atomic valenz-charges read in
  non local Contribution for L=           0  read in
    real space projection operators read in
  non local Contribution for L=           0  read in
    real space projection operators read in
  non local Contribution for L=           1  read in
    real space projection operators read in
  non local Contribution for L=           1  read in
    real space projection operators read in
    PAW grid and wavefunctions read in
 
   number of l-projection  operators is LMAX  =           4
   number of lm-projection operators is LMMAX =           8
 
 PAW_PBE C 08Apr2002                    :
 energy of atom  1       EATOM= -147.1560
 kinetic energy error for atom=    0.0076 (will be added to EATOM!!)
 
 
 POSCAR: graphite                                
  positions in direct lattice
  No initial velocities read in
 exchange correlation table for  LEXCH =        8
   RHO(1)=    0.500       N(1)  =     2000
   RHO(2)=  100.500       N(2)  =     4000

 VTST: version 3.1, (03/28/14)

 CHAIN: initializing optimizer
 
 OPT: Using VASP Conjugate-Gradient optimizer
 CHAIN: Read ICHAIN            0
 
 POSCAR: graphite                                
  positions in direct lattice
  No initial velocities read in
 


--------------------------------------------------------------------------------------------------------


 ion  position               nearest neighbor table
   1  0.000  0.000  0.073-   8 1.42   2 1.42   4 1.42
   2  0.333  0.167  0.073-   7 1.42   1 1.42   3 1.42
   3  0.500  0.000  0.073-   6 1.42   4 1.42   2 1.42
   4  0.833  0.167  0.073-   3 1.42   5 1.42   1 1.42
   5  0.000  0.500  0.073-   4 1.42   6 1.42   8 1.42
   6  0.333  0.667  0.073-   3 1.42   5 1.42   7 1.42
   7  0.500  0.500  0.073-   8 1.42   2 1.42   6 1.42
   8  0.833  0.667  0.073-   1 1.42   7 1.42   5 1.42
 
  LATTYP: Found a hexagonal cell.
 ALAT       =     4.9200000763
 C/A-ratio  =     0.5000000000
  
  Lattice vectors:
  
 A1 = (   4.9200000763,   0.0000000000,   0.0000000000)
 A2 = (  -2.4600000381,   4.2608450527,   0.0000000000)
 A3 = (   0.0000000000,   0.0000000000,   2.4600000381)
 Subroutine PRICEL returns following result:
 
  LATTYP: Found a hexagonal cell.
 ALAT       =     2.4600000382
 C/A-ratio  =     1.0000000000
  
  Lattice vectors:
  
 A1 = (   2.4600000382,   0.0000000000,   0.0000000000)
 A2 = (  -1.2300000191,   2.1304225263,   0.0000000000)
 A3 = (   0.0000000000,   0.0000000000,   2.4600000381)
 
   4 primitive cells build up your supercell.
 

Analysis of symmetry for initial positions (statically):

 Routine SETGRP: Setting up the symmetry group for a 
 hexagonal supercell.


 Subroutine GETGRP returns: Found  8 space group operations
 (whereof  2 operations were pure point group operations)
 out of a pool of 24 trial point group operations.


The static configuration has the point symmetry C_1h.
 The point group associated with its full space group is D_2h.

Analysis of symmetry for dynamics (positions and initial velocities):

 Subroutine DYNSYM returns: Found  8 space group operations
 (whereof  2 operations were pure point group operations)
 out of a pool of  8 trial space group operations
 (whereof  2 operations were pure point group operations)
 and found also     4 'primitive' translations


The dynamic configuration has the point symmetry C_1h.
 The point group associated with its full space group is D_2h.
 
 

Automatic generation of k-mesh.
 generate k-points for:    3    3    6
 
 Subroutine IBZKPT returns following result:
 ===========================================
 
 Found     16 irreducible k-points:
 
 Following reciprocal coordinates:
            Coordinates               Weight
  0.000000  0.000000  0.000000      1.000000
  0.333333  0.000000  0.000000      4.000000
  0.333333  0.333333  0.000000      2.000000
 -0.333333  0.333333  0.000000      2.000000
  0.000000  0.000000  0.166667      2.000000
  0.333333  0.000000  0.166667      8.000000
  0.333333  0.333333  0.166667      4.000000
 -0.333333  0.333333  0.166667      4.000000
  0.000000  0.000000  0.333333      2.000000
  0.333333  0.000000  0.333333      8.000000
  0.333333  0.333333  0.333333      4.000000
 -0.333333  0.333333  0.333333      4.000000
  0.000000  0.000000  0.500000      1.000000
  0.333333  0.000000  0.500000      4.000000
  0.333333  0.333333  0.500000      2.000000
 -0.333333  0.333333  0.500000      2.000000
 
 Following cartesian coordinates:
            Coordinates               Weight
  0.000000  0.000000  0.000000      1.000000
  0.067751  0.039116  0.000000      4.000000
  0.067751  0.117348  0.000000      2.000000
 -0.067751  0.039116  0.000000      2.000000
  0.000000  0.000000  0.067751      2.000000
  0.067751  0.039116  0.067751      8.000000
  0.067751  0.117348  0.067751      4.000000
 -0.067751  0.039116  0.067751      4.000000
  0.000000  0.000000  0.135501      2.000000
  0.067751  0.039116  0.135501      8.000000
  0.067751  0.117348  0.135501      4.000000
 -0.067751  0.039116  0.135501      4.000000
  0.000000  0.000000  0.203252      1.000000
  0.067751  0.039116  0.203252      4.000000
  0.067751  0.117348  0.203252      2.000000
 -0.067751  0.039116  0.203252      2.000000
 
 TETIRR: Found     75 inequivalent tetrahedra from      324


--------------------------------------------------------------------------------------------------------




 Dimension of arrays:
   k-points           NKPTS =     16   k-points in BZ     NKDIM =     16   number of bands    NBANDS=     40
   number of dos      NEDOS =    301   number of ions     NIONS =      8
   non local maximal  LDIM  =      4   non local SUM 2l+1 LMDIM =      8
   total plane-waves  NPLWV =  23328
   max r-space proj   IRMAX =      1   max aug-charges    IRDMAX=   5537
   dimension x,y,z NGX =    36 NGY =   36 NGZ =   18
   dimension x,y,z NGXF=    72 NGYF=   72 NGZF=   36
   support grid    NGXF=    72 NGYF=   72 NGZF=   36
   ions per type =               8
 NGX,Y,Z   is equivalent  to a cutoff of  12.16, 12.16, 12.16 a.u.
 NGXF,Y,Z  is equivalent  to a cutoff of  24.33, 24.33, 24.33 a.u.


 I would recommend the setting:
   dimension x,y,z NGX =    36 NGY =   36 NGZ =   18
 SYSTEM =  NAME                                    
 POSCAR =  graphite                                

 Startparameter for this run:
   NWRITE =      2    write-flag & timer
   PREC   = accura    normal or accurate (medium, high low for compatibility)
   ISTART =      0    job   : 0-new  1-cont  2-samecut
   ICHARG =      2    charge: 1-file 2-atom 10-const
   ISPIN  =      1    spin polarized calculation?
   LNONCOLLINEAR =      F non collinear calculations
   LSORBIT =      F    spin-orbit coupling
   INIWAV =      1    electr: 0-lowe 1-rand  2-diag
   LASPH  =      F    aspherical Exc in radial PAW
   METAGGA=      F    non-selfconsistent MetaGGA calc.

 Electronic Relaxation 1
   ENCUT  =  500.0 eV  36.75 Ry    6.06 a.u.   8.97  8.97  4.49*2*pi/ulx,y,z
   ENINI  =  500.0     initial cutoff
   ENAUG  =  644.9 eV  augmentation charge cutoff
   NELM   =    100;   NELMIN=  5; NELMDL= -5     # of ELM steps 
   EDIFF  = 0.1E-03   stopping-criterion for ELM
   LREAL  =      F    real-space projection
   LCOMPAT=      F    compatible to vasp.4.4
   GGA_COMPAT  = T    GGA compatible to vasp.4.4-vasp.4.6
   LMAXPAW     = -100 max onsite density
   LMAXMIX     =    2 max onsite mixed and CHGCAR
   VOSKOWN=      0    Vosko Wilk Nusair interpolation
   ROPT   =    0.00000
 Ionic relaxation
   EDIFFG = -.1E-01   stopping-criterion for IOM
   NSW    =    500    number of steps for IOM
   NBLOCK =      1;   KBLOCK =    500    inner block; outer block 
   IBRION =      2    ionic relax: 0-MD 1-quasi-New 2-CG
   NFREE  =      1    steps in history (QN), initial steepest desc. (CG)
   ISIF   =      3    stress and relaxation
   IWAVPR =     11    prediction:  0-non 1-charg 2-wave 3-comb
   ISYM   =      2    0-nonsym 1-usesym 2-fastsym
   LCORR  =      T    Harris-Foulkes like correction to forces

   POTIM  = 0.5000    time-step for ionic-motion
   TEIN   =    0.0    initial temperature
   TEBEG  =    0.0;   TEEND  =   0.0 temperature during run
   SMASS  =  -3.00    Nose mass-parameter (am)
   estimated Nose-frequenzy (Omega)   =  0.10E-29 period in steps =****** mass=  -0.553E-27a.u.
   NPACO  =    256;   APACO  = 16.0  distance and # of slots for P.C.
   PSTRESS=    0.0 pullay stress

  Mass of Ions in am
   POMASS =  12.01
  Ionic Valenz
   ZVAL   =   4.00
  Atomic Wigner-Seitz radii
   RWIGS  =  -1.00
  virtual crystal weights 
   VCA    =   1.00
   NELECT =      32.0000    total number of electrons
   NUPDOWN=      -1.0000    fix difference up-down

 DOS related values:
   EMIN   =  10.00;   EMAX   =-10.00  energy-range for DOS
   EFERMI =   0.00
   ISMEAR =    -5;   SIGMA  =   0.10  broadening in eV -4-tet -1-fermi 0-gaus

 Electronic relaxation 2 (details)
   IALGO  =     38    algorithm
   LDIAG  =      T    sub-space diagonalisation (order eigenvalues)
   LSUBROT=      T    optimize rotation matrix (better conditioning)
   TURBO    =      0    0=normal 1=particle mesh
   IRESTART =      0    0=no restart 2=restart with 2 vectors
   NREBOOT  =      0    no. of reboots
   NMIN     =      0    reboot dimension
   EREF     =   0.00    reference energy to select bands
   IMIX   =      4    mixing-type and parameters
     AMIX     =   0.40;   BMIX     =  1.00
     AMIX_MAG =   1.60;   BMIX_MAG =  1.00
     AMIN     =   0.10
     WC   =   100.;   INIMIX=   1;  MIXPRE=   1

 Intra band minimization:
   WEIMIN = 0.0010     energy-eigenvalue tresh-hold
   EBREAK =  0.12E-05  absolut break condition
   DEPER  =   0.30     relativ break condition  

   TIME   =   0.40     timestep for ELM

  volume/ion in A,a.u.               =       6.45        43.50
  Fermi-wavevector in a.u.,A,eV,Ry     =   1.396345  2.638710 26.528371  1.949780
  Thomas-Fermi vector in A             =   2.519709
 
 Write flags
   LWAVE  =      T    write WAVECAR
   LCHARG =      T    write CHGCAR
   LVTOT  =      F    write LOCPOT, total local potential
   LVHAR  =      F    write LOCPOT, Hartree potential only
   LELF   =      F    write electronic localiz. function (ELF)
   LORBIT =      0    0 simple, 1 ext, 2 COOP (PROOUT)


 Dipole corrections
   LMONO  =      F    monopole corrections only (constant potential shift)
   LDIPOL =      F    correct potential (dipole corrections)
   IDIPOL =      0    1-x, 2-y, 3-z, 4-all directions 
   EPSILON=  1.0000000 bulk dielectric constant

 Exchange correlation treatment:
   GGA     =    --    GGA type
   LEXCH   =     8    internal setting for exchange type
   VOSKOWN=      0    Vosko Wilk Nusair interpolation
   LHFCALC =     F    Hartree Fock is set to
   LHFONE  =     F    Hartree Fock one center treatment
   AEXX    =    0.0000 exact exchange contribution

 Linear response parameters
   LEPSILON=     F    determine dielectric tensor
   LRPA    =     F    only Hartree local field effects (RPA)
   LNABLA  =     F    use nabla operator in PAW spheres
   LVEL    =     F    velocity operator in full k-point grid
   LINTERFAST=   F  fast interpolation
   KINTER  =     0    interpolate to denser k-point grid
   CSHIFT  =0.1000    complex shift for real part using Kramers Kronig
   OMEGAMAX=  -1.0    maximum frequency
   RTIME   =    0.100 relaxation time in fs

 Orbital magnetization related:
   ORBITALMAG=     F  switch on orbital magnetization
   LCHIMAG   =     F  perturbation theory with respect to B field



--------------------------------------------------------------------------------------------------------


 conjugate gradient relaxation of ions
 charge density and potential will be updated during run
 non-spin polarized calculation
 Variant of blocked Davidson
 Davidson routine will perform the subspace rotation
 perform sub-space diagonalisation
    after iterative eigenvector-optimisation
 modified Broyden-mixing scheme, WC =      100.0
 initial mixing is a Kerker type mixing with AMIX =  0.4000 and BMIX =      1.0000
 Hartree-type preconditioning will be used
 using additional bands           24
 reciprocal scheme for non local part
 calculate Harris-corrections to forces 
   (improved forces if not selfconsistent)
 use gradient corrections 
 use of overlap-Matrix (Vanderbilt PP)
 Fermi weights with tetrahedron method with Bloechl corrections


--------------------------------------------------------------------------------------------------------


  energy-cutoff  :      500.00
  volume of cell :       51.57
      direct lattice vectors                 reciprocal lattice vectors
     4.920000076  0.000000000  0.000000000     0.203252029  0.117347614  0.000000000
    -2.460000038  4.260845053  0.000000000     0.000000000  0.234695228  0.000000000
     0.000000000  0.000000000  2.460000038     0.000000000  0.000000000  0.406504059

  length of vectors
     4.920000076  4.920000076  2.460000038     0.234695228  0.234695228  0.406504059


 
 k-points in units of 2pi/SCALE and weight: read from INCAR                         
   0.00000000  0.00000000  0.00000000       0.019
   0.06775068  0.03911587  0.00000000       0.074
   0.06775068  0.11734761  0.00000000       0.037
  -0.06775068  0.03911587  0.00000000       0.037
   0.00000000  0.00000000  0.06775068       0.037
   0.06775068  0.03911587  0.06775068       0.148
   0.06775068  0.11734761  0.06775068       0.074
  -0.06775068  0.03911587  0.06775068       0.074
   0.00000000  0.00000000  0.13550135       0.037
   0.06775068  0.03911587  0.13550135       0.148
   0.06775068  0.11734761  0.13550135       0.074
  -0.06775068  0.03911587  0.13550135       0.074
   0.00000000  0.00000000  0.20325203       0.019
   0.06775068  0.03911587  0.20325203       0.074
   0.06775068  0.11734761  0.20325203       0.037
  -0.06775068  0.03911587  0.20325203       0.037
 
 k-points in reciprocal lattice and weights: read from INCAR                         
   0.00000000  0.00000000  0.00000000       0.019
   0.33333333  0.00000000  0.00000000       0.074
   0.33333333  0.33333333  0.00000000       0.037
  -0.33333333  0.33333333  0.00000000       0.037
   0.00000000  0.00000000  0.16666667       0.037
   0.33333333  0.00000000  0.16666667       0.148
   0.33333333  0.33333333  0.16666667       0.074
  -0.33333333  0.33333333  0.16666667       0.074
   0.00000000  0.00000000  0.33333333       0.037
   0.33333333  0.00000000  0.33333333       0.148
   0.33333333  0.33333333  0.33333333       0.074
  -0.33333333  0.33333333  0.33333333       0.074
   0.00000000  0.00000000  0.50000000       0.019
   0.33333333  0.00000000  0.50000000       0.074
   0.33333333  0.33333333  0.50000000       0.037
  -0.33333333  0.33333333  0.50000000       0.037
 
 position of ions in fractional coordinates (direct lattice) 
   0.00000000  0.00000000  0.07317000
   0.33333001  0.16666999  0.07317000
   0.50000000  0.00000000  0.07317000
   0.83332998  0.16666999  0.07317000
   0.00000000  0.50000000  0.07317000
   0.33333001  0.66667002  0.07317000
   0.50000000  0.50000000  0.07317000
   0.83332998  0.66667002  0.07317000
 
 position of ions in cartesian coordinates  (Angst):
   0.00000000  0.00000000  0.17999820
   1.22997546  0.71015502  0.17999820
   2.46000004  0.00000000  0.17999820
   3.68997535  0.71015502  0.17999820
  -1.23000002  2.13042253  0.17999820
  -0.00002463  2.84057767  0.17999820
   1.23000002  2.13042253  0.17999820
   2.45997526  2.84057767  0.17999820
 


--------------------------------------------------------------------------------------------------------


 k-point  1 :  0.00000.00000.0000  plane waves:    1299
 k-point  2 :  0.33330.00000.0000  plane waves:    1314
 k-point  3 :  0.33330.33330.0000  plane waves:    1341
 k-point  4 :  -.33330.33330.0000  plane waves:    1314
 k-point  5 :  0.00000.00000.1667  plane waves:    1299
 k-point  6 :  0.33330.00000.1667  plane waves:    1313
 k-point  7 :  0.33330.33330.1667  plane waves:    1290
 k-point  8 :  -.33330.33330.1667  plane waves:    1313
 k-point  9 :  0.00000.00000.3333  plane waves:    1323
 k-point 10 :  0.33330.00000.3333  plane waves:    1295
 k-point 11 :  0.33330.33330.3333  plane waves:    1302
 k-point 12 :  -.33330.33330.3333  plane waves:    1295
 k-point 13 :  0.00000.00000.5000  plane waves:    1292
 k-point 14 :  0.33330.00000.5000  plane waves:    1302
 k-point 15 :  0.33330.33330.5000  plane waves:    1290
 k-point 16 :  -.33330.33330.5000  plane waves:    1302

 maximum and minimum number of plane-waves per node :      1341     1290

 maximum number of plane-waves:      1341
 maximum index in each direction: 
   IXMAX=    9   IYMAX=    8   IZMAX=    4
   IXMIN=   -9   IYMIN=   -9   IZMIN=   -4

 WARNING: aliasing errors must be expected set NGX to  38 to avoid them
 NGY is ok and might be reduce to  36
 NGZ is ok and might be reduce to  18
 aliasing errors are usually negligible using standard VASP settings
 and one can safely disregard these warnings

 serial   3D FFT for wavefunctions
 parallel 3D FFT for charge:
    minimum data exchange during FFTs selected (reduces bandwidth)


 total amount of memory used by VASP on root node    34261. kBytes
========================================================================

   base      :      30000. kBytes
   nonl-proj :       1566. kBytes
   fftplans  :        465. kBytes
   grid      :       1469. kBytes
   one-center:         24. kBytes
   wavefun   :        737. kBytes
 
 Broyden mixing: mesh for mixing (old mesh)
   NGX = 17   NGY = 17   NGZ =  9
  (NGX  = 72   NGY  = 72   NGZ  = 36)
  gives a total of   2601 points

 initial charge density was supplied:
 charge density of overlapping atoms calculated
 number of electron      32.0000000 magnetization 
 keeping initial charge density in first step


--------------------------------------------------------------------------------------------------------


 Maximum index for augmentation-charges          330 (set IRDMAX)


--------------------------------------------------------------------------------------------------------


 First call to EWALD:  gamma=   0.476
 Maximum number of real-space cells 2x 2x 4
 Maximum number of reciprocal cells 3x 3x 2

    FEWALD:  cpu time    0.00: real time    0.00


----------------------------------------- Iteration    1(   1)  ---------------------------------------


    POTLOK:  cpu time    0.04: real time    0.04
    SETDIJ:  cpu time    0.00: real time    0.00
     EDDAV:  cpu time    1.85: real time    2.53
 BZINTS: Fermi energy: 11.600498; 32.000000 electrons
         Band energy:  12.684360;  BLOECHL correction: -0.747424
       DOS:  cpu time    0.01: real time    0.01
    --------------------------------------------
      LOOP:  cpu time    1.90: real time    2.58

 eigenvalue-minimisations  :  1280
 total energy-change (2. order) : 0.2513484E+02  (-0.1582632E+04)
 number of electron      32.0000000 magnetization 
 augmentation part       32.0000000 magnetization 

 Free energy of the ion-electron system (eV)
  ---------------------------------------------------
  alpha Z        PSCENC =       101.11973060
  Ewald energy   TEWEN  =     -1248.61899323
  -1/2 Hartree   DENC   =      -121.24107553
  -exchange  EXHF       =         0.00000000
  -V(xc)+E(xc)   XCENC  =       113.20728244
  PAW double counting   =       302.65154477     -311.85538214
  entropy T*S    EENTRO =         0.00000000
  eigenvalues    EBANDS =        12.68436031
  atomic energy  EATOM  =      1177.18737338
  ---------------------------------------------------
  free energy    TOTEN  =        25.13484062 eV

  energy without entropy =       25.13484062  energy(sigma->0) =       25.13484062


--------------------------------------------------------------------------------------------------------


 E-fermi :  11.6005     XC(G=0): -12.8513     alpha+bet :-15.5734


 k-point   1 :       0.0000    0.0000    0.0000
  band No.  band energies     occupation 
      1     -13.0348      2.00000
      2      -7.3162      2.00000
      3      -6.6103      2.00000
      4      -6.0717      2.00000
      5      -5.5825      2.00000
      6      -4.8863      2.00000
      7      -4.2683      2.00000
      8       1.6582      2.00000
      9       2.5026      2.00000
     10       2.9724      2.00000
     11       6.2842      2.00000
     12       9.4364      2.00000
     13      10.8220      2.00000
     14      12.1802      1.86952
     15      12.9121      0.06100
     16      14.3805     -0.05744
     17      15.7886      0.00000
     18      16.9897      0.00000
     19      17.1767      0.00000
     20      18.4110      0.00000
     21      20.0333      0.00000
     22      21.0946      0.00000
     23      22.7103      0.00000
     24      23.5327      0.00000
     25      24.9054      0.00000
     26      25.8403      0.00000
     27      27.4797      0.00000
     28      28.3737      0.00000
     29      29.4242      0.00000
     30      30.9817      0.00000
     31      32.8949      0.00000
     32      34.4496      0.00000
     33      36.1051      0.00000
     34      38.7213      0.00000
     35      40.3885      0.00000
     36      43.1839      0.00000
     37      43.9956      0.00000
     38      44.7622      0.00000
     39      47.4221      0.00000
     40      49.7097      0.00000

 k-point   2 :       0.3333    0.0000    0.0000
  band No.  band energies     occupation 
      1     -12.3769      2.00000
      2      -9.8939      2.00000
      3      -7.8423      2.00000
      4      -6.5796      2.00000
      5      -3.6993      2.00000
      6      -2.8367      2.00000
      7      -1.0401      2.00000
      8       0.6868      2.00000
      9       1.4357      2.00000
     10       3.4135      2.00000
     11       4.6778      2.00000
     12       6.7477      2.00000
     13       8.2438      2.00000
     14      10.1084      1.99779
     15      12.2460      0.73959
     16      13.9482     -0.00998
     17      16.9922      0.00000
     18      18.0459      0.00000
     19      18.6552      0.00000
     20      18.8329      0.00000
     21      20.0778      0.00000
     22      21.1316      0.00000
     23      22.7216      0.00000
     24      23.5888      0.00000
     25      24.0728      0.00000
     26      25.3123      0.00000
     27      27.2637      0.00000
     28      27.9580      0.00000
     29      29.7559      0.00000
     30      31.4791      0.00000
     31      32.2558      0.00000
     32      34.5965      0.00000
     33      37.0013      0.00000
     34      38.0376      0.00000
     35      39.1206      0.00000
     36      40.2371      0.00000
     37      43.3313      0.00000
     38      44.5729      0.00000
     39      47.2873      0.00000
     40      50.2374      0.00000

 k-point   3 :       0.3333    0.3333    0.0000
  band No.  band energies     occupation 
      1     -10.9214      2.00000
      2     -10.8402      2.00000
      3      -9.7526      2.00000
      4      -5.0397      2.00000
      5      -4.2015      2.00000
      6      -2.2624      2.00000
      7       0.1017      2.00000
      8       0.9320      2.00000
      9       1.8399      2.00000
     10       2.4340      2.00000
     11       3.5925      2.00000
     12       4.2622      2.00000
     13       8.7929      2.00000
     14       9.8226      2.00000
     15      11.7341      1.29678
     16      14.9966     -0.02797
     17      17.2119      0.00000
     18      18.3314      0.00000
     19      19.5193      0.00000
     20      21.1053      0.00000
     21      21.8941      0.00000
     22      22.8018      0.00000
     23      23.0207      0.00000
     24      23.6839      0.00000
     25      24.4114      0.00000
     26      25.4625      0.00000
     27      26.6581      0.00000
     28      28.6661      0.00000
     29      29.9103      0.00000
     30      31.2741      0.00000
     31      33.2082      0.00000
     32      34.6286      0.00000
     33      36.7499      0.00000
     34      38.3499      0.00000
     35      39.9917      0.00000
     36      42.1731      0.00000
     37      42.5126      0.00000
     38      44.6921      0.00000
     39      46.0408      0.00000
     40      49.1658      0.00000

 k-point   4 :      -0.3333    0.3333    0.0000
  band No.  band energies     occupation 
      1     -12.3213      2.00000
      2     -10.2218      2.00000
      3      -8.4293      2.00000
      4      -7.2279      2.00000
      5      -4.0870      2.00000
      6      -2.8902      2.00000
      7      -0.7992      2.00000
      8      -0.1097      2.00000
      9       1.0536      2.00000
     10       4.0937      2.00000
     11       4.3416      2.00000
     12       6.7900      2.00000
     13       8.1457      2.00000
     14       9.9094      2.00209
     15      11.9086      1.08468
     16      13.2712     -0.06689
     17      16.7826      0.00000
     18      17.8938      0.00000
     19      18.4630      0.00000
     20      19.4512      0.00000
     21      20.9123      0.00000
     22      22.3208      0.00000
     23      22.9502      0.00000
     24      23.2041      0.00000
     25      24.1214      0.00000
     26      25.7119      0.00000
     27      26.4596      0.00000
     28      28.5661      0.00000
     29      29.4230      0.00000
     30      31.9452      0.00000
     31      32.5455      0.00000
     32      34.2339      0.00000
     33      36.2789      0.00000
     34      37.6017      0.00000
     35      39.3671      0.00000
     36      40.3650      0.00000
     37      42.6191      0.00000
     38      44.7865      0.00000
     39      45.6549      0.00000
     40      52.6824      0.00000

 k-point   5 :       0.0000    0.0000    0.1667
  band No.  band energies     occupation 
      1     -12.4785      2.00000
      2      -6.7488      2.00000
      3      -6.0573      2.00000
      4      -5.4596      2.00000
      5      -4.7264      2.00000
      6      -4.3439      2.00000
      7      -3.7440      2.00000
      8       2.5067      2.00000
      9       3.5751      2.00000
     10       3.9302      2.00000
     11       4.8029      2.00000
     12       6.4468      2.00000
     13       7.9712      2.00000
     14       9.3289      2.00524
     15      10.8178      1.90933
     16      12.0446      0.62852
     17      13.7036     -0.06630
     18      15.5975      0.00000
     19      15.7436      0.00000
     20      17.0143      0.00000
     21      18.2232      0.00000
     22      19.1398      0.00000
     23      20.0327      0.00000
     24      23.6465      0.00000
     25      25.8424      0.00000
     26      27.5279      0.00000
     27      28.7375      0.00000
     28      29.8500      0.00000
     29      31.2318      0.00000
     30      32.9620      0.00000
     31      34.1762      0.00000
     32      34.9378      0.00000
     33      37.3748      0.00000
     34      38.0370      0.00000
     35      39.5510      0.00000
     36      41.3089      0.00000
     37      43.6450      0.00000
     38      45.2067      0.00000
     39      47.1369      0.00000
     40      49.7690      0.00000

 k-point   6 :       0.3333    0.0000    0.1667
  band No.  band energies     occupation 
      1     -11.5412      2.00000
      2      -9.5588      2.00000
      3      -7.2444      2.00000
      4      -6.2158      2.00000
      5      -3.4524      2.00000
      6      -2.8937      2.00000
      7      -0.6460      2.00000
      8       0.4073      2.00000
      9       1.6850      2.00000
     10       3.9342      2.00000
     11       4.8532      2.00000
     12       5.5254      2.00000
     13       6.5695      2.00000
     14       7.2361      2.00499
     15      10.1619      2.07871
     16      12.0159      0.61792
     17      14.4330     -0.09149
     18      16.9406      0.00000
     19      17.8921      0.00000
     20      19.1569      0.00000
     21      20.4594      0.00000
     22      21.7318      0.00000
     23      23.1976      0.00000
     24      24.0364      0.00000
     25      25.2209      0.00000
     26      25.9854      0.00000
     27      26.7589      0.00000
     28      29.3912      0.00000
     29      30.2813      0.00000
     30      31.9856      0.00000
     31      33.0029      0.00000
     32      34.1194      0.00000
     33      36.3892      0.00000
     34      37.0829      0.00000
     35      40.4390      0.00000
     36      41.4084      0.00000
     37      43.9907      0.00000
     38      45.1401      0.00000
     39      48.6108      0.00000
     40      52.3625      0.00000

 k-point   7 :       0.3333    0.3333    0.1667
  band No.  band energies     occupation 
      1     -10.8281      2.00000
      2     -10.0523      2.00000
      3      -9.5495      2.00000
      4      -4.8702      2.00000
      5      -4.2082      2.00000
      6      -2.2867      2.00000
      7       0.0119      2.00000
      8       1.1838      2.00000
      9       2.3639      2.00000
     10       3.0969      2.00000
     11       3.5224      2.00000
     12       5.2393      2.00000
     13       5.8762      2.00000
     14       7.0886      2.00000
     15       8.1643      2.20435
     16      12.5340      0.46451
     17      13.2041     -0.00859
     18      17.8787      0.00000
     19      18.8277      0.00000
     20      20.0246      0.00000
     21      20.5918      0.00000
     22      22.7787      0.00000
     23      23.5522      0.00000
     24      23.9689      0.00000
     25      25.0042      0.00000
     26      25.7940      0.00000
     27      26.6746      0.00000
     28      27.9587      0.00000
     29      29.7058      0.00000
     30      30.8676      0.00000
     31      31.9810      0.00000
     32      32.5566      0.00000
     33      34.7023      0.00000
     34      35.9596      0.00000
     35      38.6194      0.00000
     36      39.6741      0.00000
     37      40.8452      0.00000
     38      43.2823      0.00000
     39      48.6966      0.00000
     40      50.8373      0.00000

 k-point   8 :      -0.3333    0.3333    0.1667
  band No.  band energies     occupation 
      1     -11.4128      2.00000
      2      -9.0503      2.00000
      3      -7.1998      2.00000
      4      -6.8074      2.00000
      5      -2.5429      2.00000
      6      -1.9731      2.00000
      7      -0.8251      2.00000
      8       0.6266      2.00000
      9       2.1137      2.00000
     10       3.9789      2.00000
     11       4.5282      2.00000
     12       5.5328      2.00000
     13       7.3141      2.00000
     14       8.3057      2.00468
     15       9.8286      2.10325
     16      11.2821      1.00419
     17      14.7670     -0.10544
     18      16.0269      0.00000
     19      18.8602      0.00000
     20      19.6958      0.00000
     21      21.1847      0.00000
     22      22.8278      0.00000
     23      23.8982      0.00000
     24      25.2969      0.00000
     25      25.9222      0.00000
     26      27.0347      0.00000
     27      27.8076      0.00000
     28      28.9902      0.00000
     29      30.1907      0.00000
     30      31.3056      0.00000
     31      32.8900      0.00000
     32      35.3101      0.00000
     33      36.6148      0.00000
     34      37.5340      0.00000
     35      41.6220      0.00000
     36      42.5025      0.00000
     37      44.1228      0.00000
     38      46.2324      0.00000
     39      49.0424      0.00000
     40      52.5587      0.00000

 k-point   9 :       0.0000    0.0000    0.3333
  band No.  band energies     occupation 
      1     -11.4118      2.00000
      2      -5.6238      2.00000
      3      -5.2493      2.00000
      4      -5.0729      2.00000
      5      -4.1069      2.00000
      6      -3.7280      2.00000
      7      -2.6280      2.00000
      8      -0.2601      2.00000
      9       2.8573      2.00000
     10       3.3933      2.00000
     11       4.6528      2.00000
     12       5.5556      2.00000
     13       6.7686      2.00000
     14       7.3045      2.00000
     15       8.0929      2.00000
     16       8.9834      2.12311
     17      10.3930      1.59414
     18      11.7271      0.39772
     19      13.0776      0.00000
     20      19.2044      0.00000
     21      20.1430      0.00000
     22      20.8876      0.00000
     23      22.6858      0.00000
     24      24.0316      0.00000
     25      25.9208      0.00000
     26      28.4688      0.00000
     27      28.9978      0.00000
     28      30.3727      0.00000
     29      31.0345      0.00000
     30      32.2011      0.00000
     31      34.1144      0.00000
     32      35.5319      0.00000
     33      37.3570      0.00000
     34      39.0940      0.00000
     35      41.2278      0.00000
     36      41.7239      0.00000
     37      43.2140      0.00000
     38      46.0199      0.00000
     39      48.7575      0.00000
     40      50.2183      0.00000

 k-point  10 :       0.3333    0.0000    0.3333
  band No.  band energies     occupation 
      1     -10.4254      2.00000
      2      -7.9264      2.00000
      3      -6.4607      2.00000
      4      -5.8386      2.00000
      5      -2.4763      2.00000
      6      -2.2036      2.00000
      7      -0.8236      2.00000
      8       0.3873      2.00000
      9       1.9284      2.00000
     10       2.9610      2.00000
     11       3.5348      2.00000
     12       4.1727      2.00000
     13       5.1436      2.00000
     14       5.9535      2.00000
     15       6.3576      2.00000
     16       8.7539      2.13389
     17      11.8514      1.04441
     18      14.1136     -0.11548
     19      15.1880      0.00000
     20      19.7558      0.00000
     21      20.3120      0.00000
     22      22.1732      0.00000
     23      23.0783      0.00000
     24      23.7665      0.00000
     25      25.0714      0.00000
     26      26.9377      0.00000
     27      28.4116      0.00000
     28      28.9047      0.00000
     29      31.2539      0.00000
     30      33.3337      0.00000
     31      35.0050      0.00000
     32      35.2109      0.00000
     33      37.3392      0.00000
     34      37.8041      0.00000
     35      39.5630      0.00000
     36      41.7416      0.00000
     37      43.5731      0.00000
     38      45.2537      0.00000
     39      48.2372      0.00000
     40      50.1054      0.00000

 k-point  11 :       0.3333    0.3333    0.3333
  band No.  band energies     occupation 
      1      -9.5591      2.00000
      2      -9.0402      2.00000
      3      -8.2371      2.00000
      4      -3.8490      2.00000
      5      -3.2468      2.00000
      6      -1.4946      2.00000
      7       0.6037      2.00000
      8       1.6747      2.00000
      9       1.9736      2.00000
     10       2.5002      2.00000
     11       3.1094      2.00000
     12       3.7191      2.00000
     13       3.9267      2.00000
     14       4.9575      2.00000
     15       6.0342      2.00000
     16       8.8590      2.12006
     17       9.2641      2.00347
     18      15.1831     -0.11968
     19      16.1801      0.00000
     20      18.3886      0.00000
     21      19.4718      0.00000
     22      22.3183      0.00000
     23      23.7982      0.00000
     24      24.4234      0.00000
     25      25.5304      0.00000
     26      26.8295      0.00000
     27      27.7886      0.00000
     28      28.1518      0.00000
     29      30.2528      0.00000
     30      33.1414      0.00000
     31      34.0211      0.00000
     32      35.0471      0.00000
     33      37.2935      0.00000
     34      39.9510      0.00000
     35      40.6155      0.00000
     36      42.7573      0.00000
     37      44.3862      0.00000
     38      45.7031      0.00000
     39      49.8445      0.00000
     40      52.5413      0.00000

 k-point  12 :      -0.3333    0.3333    0.3333
  band No.  band energies     occupation 
      1     -10.0633      2.00000
      2      -7.6780      2.00000
      3      -6.7742      2.00000
      4      -6.0920      2.00000
      5      -2.8154      2.00000
      6      -1.6298      2.00000
      7      -0.1505      2.00000
      8       0.7743      2.00000
      9       1.3574      2.00000
     10       2.4266      2.00000
     11       3.6832      2.00000
     12       4.6083      2.00000
     13       5.0899      2.00000
     14       5.9135      2.00000
     15       7.1739      2.00000
     16       8.8496      2.10687
     17      11.8987      1.02401
     18      12.5296      0.09316
     19      14.1665      0.00000
     20      18.8240      0.00000
     21      21.2181      0.00000
     22      22.1867      0.00000
     23      22.8099      0.00000
     24      23.7846      0.00000
     25      24.9767      0.00000
     26      26.3884      0.00000
     27      28.7700      0.00000
     28      29.7112      0.00000
     29      30.6797      0.00000
     30      32.3568      0.00000
     31      33.9107      0.00000
     32      35.4759      0.00000
     33      36.4290      0.00000
     34      37.2180      0.00000
     35      39.4236      0.00000
     36      42.5977      0.00000
     37      43.6227      0.00000
     38      44.8254      0.00000
     39      48.9769      0.00000
     40      53.0038      0.00000

 k-point  13 :       0.0000    0.0000    0.5000
  band No.  band energies     occupation 
      1     -10.2789      2.00000
      2      -5.4746      2.00000
      3      -5.1011      2.00000
      4      -4.7256      2.00000
      5      -4.1339      2.00000
      6      -3.8535      2.00000
      7      -3.5805      2.00000
      8      -1.8933      2.00000
      9       1.8823      2.00000
     10       2.2591      2.00000
     11       3.9018      2.00000
     12       4.1072      2.00000
     13       5.4075      2.00000
     14       5.8982      2.00000
     15       7.7819      2.00000
     16       8.5521      2.00000
     17       9.1014      2.14901
     18      10.7133      1.65071
     19      13.5030      0.00000
     20      19.0610      0.00000
     21      19.2871      0.00000
     22      22.1924      0.00000
     23      22.6643      0.00000
     24      24.3567      0.00000
     25      24.9431      0.00000
     26      26.8069      0.00000
     27      28.5009      0.00000
     28      29.1306      0.00000
     29      31.1453      0.00000
     30      32.0661      0.00000
     31      34.5337      0.00000
     32      35.2583      0.00000
     33      37.0822      0.00000
     34      38.2523      0.00000
     35      41.4774      0.00000
     36      43.1570      0.00000
     37      44.5793      0.00000
     38      46.1813      0.00000
     39      48.8093      0.00000
     40      52.2163      0.00000

 k-point  14 :       0.3333    0.0000    0.5000
  band No.  band energies     occupation 
      1      -9.6846      2.00000
      2      -7.4245      2.00000
      3      -5.6689      2.00000
      4      -5.5276      2.00000
      5      -2.6254      2.00000
      6      -2.2344      2.00000
      7      -0.7760      2.00000
      8      -0.3196      2.00000
      9       1.2300      2.00000
     10       1.9529      2.00000
     11       3.2641      2.00000
     12       3.4284      2.00000
     13       4.3524      2.00000
     14       5.0054      2.00000
     15       5.6692      2.00000
     16       7.1695      2.00000
     17      10.0826      2.04305
     18      10.7380      0.99473
     19      14.3043      0.00000
     20      18.9267      0.00000
     21      19.9238      0.00000
     22      21.1320      0.00000
     23      22.1856      0.00000
     24      25.3570      0.00000
     25      26.7299      0.00000
     26      28.5117      0.00000
     27      29.6919      0.00000
     28      30.5522      0.00000
     29      31.3426      0.00000
     30      33.0359      0.00000
     31      35.5300      0.00000
     32      36.4923      0.00000
     33      38.1304      0.00000
     34      40.1004      0.00000
     35      40.7099      0.00000
     36      43.8512      0.00000
     37      44.3326      0.00000
     38      48.1891      0.00000
     39      50.0198      0.00000
     40      54.1245      0.00000

 k-point  15 :       0.3333    0.3333    0.5000
  band No.  band energies     occupation 
      1      -8.8214      2.00000
      2      -8.5910      2.00000
      3      -7.4090      2.00000
      4      -3.1793      2.00000
      5      -2.3584      2.00000
      6      -1.4106      2.00000
      7       0.0949      2.00000
      8       0.5100      2.00000
      9       1.0529      2.00000
     10       1.4211      2.00000
     11       2.1746      2.00000
     12       2.8191      2.00000
     13       3.8713      2.00000
     14       4.3519      2.00000
     15       5.8305      2.00000
     16       7.0633      2.00000
     17       8.3995      2.11205
     18      14.7171     -0.24188
     19      16.4710      0.00000
     20      17.5135      0.00000
     21      19.0277      0.00000
     22      23.2463      0.00000
     23      24.0530      0.00000
     24      24.6284      0.00000
     25      24.9991      0.00000
     26      26.1466      0.00000
     27      28.2802      0.00000
     28      29.7422      0.00000
     29      30.6168      0.00000
     30      32.1587      0.00000
     31      33.2424      0.00000
     32      34.4107      0.00000
     33      37.6295      0.00000
     34      38.5613      0.00000
     35      41.1290      0.00000
     36      43.5354      0.00000
     37      44.8331      0.00000
     38      45.4563      0.00000
     39      47.7926      0.00000
     40      51.9366      0.00000

 k-point  16 :      -0.3333    0.3333    0.5000
  band No.  band energies     occupation 
      1      -9.3526      2.00000
      2      -7.5884      2.00000
      3      -5.7548      2.00000
      4      -4.9385      2.00000
      5      -1.7291      2.00000
      6      -1.2534      2.00000
      7      -1.0641      2.00000
      8       0.5689      2.00000
      9       1.4854      2.00000
     10       2.0111      2.00000
     11       2.5325      2.00000
     12       3.5236      2.00000
     13       4.1529      2.00000
     14       5.1083      2.00000
     15       6.0646      2.00000
     16       6.7568      2.00000
     17       9.9207      2.05800
     18      10.3692      1.34313
     19      13.7910      0.00000
     20      18.8219      0.00000
     21      19.7560      0.00000
     22      21.1936      0.00000
     23      22.5256      0.00000
     24      23.6382      0.00000
     25      25.1125      0.00000
     26      26.2376      0.00000
     27      27.8284      0.00000
     28      29.1381      0.00000
     29      30.3433      0.00000
     30      32.5305      0.00000
     31      34.5600      0.00000
     32      35.3524      0.00000
     33      37.1124      0.00000
     34      39.5526      0.00000
     35      40.5285      0.00000
     36      42.6604      0.00000
     37      44.8902      0.00000
     38      46.7330      0.00000
     39      48.8653      0.00000
     40      51.4702      0.00000


----------------------------------------- Iteration    1(   2)  ---------------------------------------


     EDDAV:  cpu time    2.87: real time    3.15
 BZINTS: Fermi energy:  7.378075; 32.000000 electrons
         Band energy: -84.684246;  BLOECHL correction: -0.657668
       DOS:  cpu time    0.01: real time    0.01
    --------------------------------------------
      LOOP:  cpu time    2.88: real time    3.16

 eigenvalue-minimisations  :  1780
 total energy-change (2. order) :-0.9736861E+02  (-0.9280479E+02)
 number of electron      32.0000000 magnetization 
 augmentation part       32.0000000 magnetization 

 Free energy of the ion-electron system (eV)
  ---------------------------------------------------
  alpha Z        PSCENC =       101.11973060
  Ewald energy   TEWEN  =     -1248.61899323
  -1/2 Hartree   DENC   =      -121.24107553
  -exchange  EXHF       =         0.00000000
  -V(xc)+E(xc)   XCENC  =       113.20728244
  PAW double counting   =       302.65154477     -311.85538214
  entropy T*S    EENTRO =         0.00000000
  eigenvalues    EBANDS =       -84.68424647
  atomic energy  EATOM  =      1177.18737338
  ---------------------------------------------------
  free energy    TOTEN  =       -72.23376616 eV

  energy without entropy =      -72.23376616  energy(sigma->0) =      -72.23376616


--------------------------------------------------------------------------------------------------------


 E-fermi :   7.3781     XC(G=0): -12.8513     alpha+bet :-15.5734


 k-point   1 :       0.0000    0.0000    0.0000
  band No.  band energies     occupation 
      1     -14.0063      2.00000
      2      -8.7864      2.00000
      3      -8.7719      2.00000
      4      -8.7633      2.00000
      5      -7.5696      2.00000
      6      -7.5591      2.00000
      7      -7.5461      2.00000
      8      -0.7195      2.00000
      9      -0.7019      2.00000
     10      -0.6567      2.00000
     11       2.7610      2.00000
     12       2.8978      2.00000
     13       3.7524      2.00000
     14       8.0287      1.69014
     15       8.0539      0.45539
     16       8.1947      0.29282
     17      12.2633      0.00000
     18      12.3025      0.00000
     19      12.3355      0.00000
     20      13.0388      0.00000
     21      13.0627      0.00000
     22      13.0983      0.00000
     23      14.3046      0.00000
     24      14.3480      0.00000
     25      17.4614      0.00000
     26      17.7576      0.00000
     27      19.5558      0.00000
     28      21.8436      0.00000
     29      21.8634      0.00000
     30      21.8751      0.00000
     31      22.1880      0.00000
     32      22.2035      0.00000
     33      22.2134      0.00000
     34      25.7122      0.00000
     35      25.7893      0.00000
     36      25.9553      0.00000
     37      28.3706      0.00000
     38      30.8477      0.00000
     39      31.0745      0.00000
     40      31.5573      0.00000

 k-point   2 :       0.3333    0.0000    0.0000
  band No.  band energies     occupation 
      1     -13.3495      2.00000
      2     -11.3921      2.00000
      3      -9.5480      2.00000
      4      -9.5104      2.00000
      5      -5.7912      2.00000
      6      -5.7600      2.00000
      7      -3.9622      2.00000
      8      -2.3271      2.00000
      9      -2.3009      2.00000
     10      -0.0894      2.00000
     11       0.3817      2.00000
     12       1.5598      2.00000
     13       4.4337      2.00000
     14       6.2839      1.99693
     15       7.9183      1.06509
     16       8.0134      0.27878
     17      12.6166      0.00000
     18      12.6447      0.00000
     19      13.4333      0.00000
     20      14.1877      0.00000
     21      14.7267      0.00000
     22      15.6474      0.00000
     23      15.7361      0.00000
     24      16.8335      0.00000
     25      18.1621      0.00000
     26      18.2168      0.00000
     27      19.2644      0.00000
     28      19.9587      0.00000
     29      20.2706      0.00000
     30      20.4035      0.00000
     31      21.4457      0.00000
     32      21.5598      0.00000
     33      22.1481      0.00000
     34      22.4047      0.00000
     35      26.8932      0.00000
     36      28.2400      0.00000
     37      30.3341      0.00000
     38      31.1612      0.00000
     39      31.5314      0.00000
     40      32.0779      0.00000

 k-point   3 :       0.3333    0.3333    0.0000
  band No.  band energies     occupation 
      1     -12.0500      2.00000
      2     -12.0418      2.00000
      3     -12.0131      2.00000
      4      -7.0648      2.00000
      5      -7.0505      2.00000
      6      -4.7184      2.00000
      7      -2.1602      2.00000
      8      -2.1301      2.00000
      9      -2.0758      2.00000
     10      -0.6972      2.00000
     11      -0.6712      2.00000
     12      -0.5693      2.00000
     13       5.6829      2.00000
     14       5.7446      2.00000
     15       5.7879      2.17113
     16      10.1962     -0.44355
     17      10.3784      0.00000
     18      15.6505      0.00000
     19      15.6687      0.00000
     20      15.6854      0.00000
     21      15.7303      0.00000
     22      15.7577      0.00000
     23      15.7824      0.00000
     24      17.1142      0.00000
     25      17.1367      0.00000
     26      17.1623      0.00000
     27      19.4112      0.00000
     28      19.4247      0.00000
     29      19.4281      0.00000
     30      19.4569      0.00000
     31      19.4875      0.00000
     32      21.1293      0.00000
     33      22.9185      0.00000
     34      22.9782      0.00000
     35      23.1659      0.00000
     36      29.1572      0.00000
     37      29.2336      0.00000
     38      29.4851      0.00000
     39      30.6058      0.00000
     40      31.4645      0.00000

 k-point   4 :      -0.3333    0.3333    0.0000
  band No.  band energies     occupation 
      1     -13.3500      2.00000
      2     -11.4006      2.00000
      3      -9.5569      2.00000
      4      -9.5384      2.00000
      5      -5.8013      2.00000
      6      -5.7605      2.00000
      7      -3.9815      2.00000
      8      -2.3457      2.00000
      9      -2.2787      2.00000
     10      -0.0256      2.00000
     11       0.4676      2.00000
     12       1.5434      2.00000
     13       4.4020      2.00000
     14       6.2754      2.00223
     15       7.9197      1.10610
     16       7.9403      0.37610
     17      12.6125      0.00000
     18      12.6641      0.00000
     19      13.4208      0.00000
     20      14.1952      0.00000
     21      14.6791      0.00000
     22      15.6216      0.00000
     23      15.6604      0.00000
     24      16.8121      0.00000
     25      18.0574      0.00000
     26      18.1637      0.00000
     27      19.0650      0.00000
     28      19.9064      0.00000
     29      20.2217      0.00000
     30      20.2631      0.00000
     31      21.3915      0.00000
     32      21.4155      0.00000
     33      21.7924      0.00000
     34      22.0980      0.00000
     35      26.6848      0.00000
     36      27.0914      0.00000
     37      30.2158      0.00000
     38      30.6388      0.00000
     39      30.9882      0.00000
     40      31.2897      0.00000

 k-point   5 :       0.0000    0.0000    0.1667
  band No.  band energies     occupation 
      1     -13.6196      2.00000
      2      -8.4489      2.00000
      3      -8.4352      2.00000
      4      -8.4008      2.00000
      5      -7.2837      2.00000
      6      -7.2603      2.00000
      7      -7.2245      2.00000
      8      -0.5737      2.00000
      9      -0.5574      2.00000
     10      -0.4712      2.00000
     11       1.6213      2.00000
     12       2.6971      2.00000
     13       2.7694      2.00000
     14       6.3063      1.99867
     15       6.3774      2.02097
     16       6.4624      1.97913
     17      10.3042      0.00000
     18      10.3244      0.00000
     19      10.4045      0.00000
     20      13.6830      0.00000
     21      13.7004      0.00000
     22      13.7248      0.00000
     23      14.5078      0.00000
     24      14.5499      0.00000
     25      17.4502      0.00000
     26      20.3787      0.00000
     27      20.5104      0.00000
     28      23.0332      0.00000
     29      23.0783      0.00000
     30      23.3340      0.00000
     31      24.1484      0.00000
     32      24.3009      0.00000
     33      24.7724      0.00000
     34      26.1558      0.00000
     35      26.4995      0.00000
     36      28.7164      0.00000
     37      29.7190      0.00000
     38      31.5494      0.00000
     39      31.8487      0.00000
     40      32.1695      0.00000

 k-point   6 :       0.3333    0.0000    0.1667
  band No.  band energies     occupation 
      1     -12.9634      2.00000
      2     -11.0465      2.00000
      3      -9.2131      2.00000
      4      -9.1951      2.00000
      5      -5.5220      2.00000
      6      -5.4968      2.00000
      7      -3.7169      2.00000
      8      -2.1477      2.00000
      9      -2.0822      2.00000
     10       0.1302      2.00000
     11       0.4975      2.00000
     12       1.6852      2.00000
     13       2.3617      2.00000
     14       4.3748      2.00920
     15       6.1501      2.04264
     16       6.2143      1.88817
     17      10.8623     -0.04667
     18      10.9534      0.00000
     19      12.8690      0.00000
     20      14.2343      0.00000
     21      14.4910      0.00000
     22      16.1859      0.00000
     23      16.2098      0.00000
     24      16.6005      0.00000
     25      16.9684      0.00000
     26      20.2188      0.00000
     27      20.9124      0.00000
     28      21.0599      0.00000
     29      21.0854      0.00000
     30      22.0977      0.00000
     31      22.1043      0.00000
     32      22.1154      0.00000
     33      22.2113      0.00000
     34      22.8200      0.00000
     35      27.2684      0.00000
     36      27.4270      0.00000
     37      28.4715      0.00000
     38      28.5896      0.00000
     39      30.5810      0.00000
     40      30.7759      0.00000

 k-point   7 :       0.3333    0.3333    0.1667
  band No.  band energies     occupation 
      1     -11.6866      2.00000
      2     -11.6830      2.00000
      3     -11.6634      2.00000
      4      -6.7656      2.00000
      5      -6.7296      2.00000
      6      -4.5215      2.00000
      7      -1.9524      2.00000
      8      -1.9301      2.00000
      9      -1.8130      2.00000
     10      -0.5473      2.00000
     11      -0.5210      2.00000
     12      -0.3689      2.00000
     13       3.7040      2.00000
     14       3.7379      2.00000
     15       3.7557      2.13336
     16       8.5235      0.74909
     17       8.5688      0.01328
     18      14.0888      0.00000
     19      14.1241      0.00000
     20      14.2095      0.00000
     21      16.1143      0.00000
     22      16.1588      0.00000
     23      16.1822      0.00000
     24      17.8489      0.00000
     25      17.8705      0.00000
     26      17.9102      0.00000
     27      19.8864      0.00000
     28      20.4508      0.00000
     29      20.4900      0.00000
     30      21.5911      0.00000
     31      21.6056      0.00000
     32      21.6508      0.00000
     33      23.4438      0.00000
     34      23.5014      0.00000
     35      24.0056      0.00000
     36      26.5920      0.00000
     37      29.2605      0.00000
     38      29.3125      0.00000
     39      29.4408      0.00000
     40      30.5975      0.00000

 k-point   8 :      -0.3333    0.3333    0.1667
  band No.  band energies     occupation 
      1     -12.9502      2.00000
      2     -11.0316      2.00000
      3      -9.2124      2.00000
      4      -9.2036      2.00000
      5      -5.5089      2.00000
      6      -5.4755      2.00000
      7      -3.7302      2.00000
      8      -2.1393      2.00000
      9      -2.0915      2.00000
     10       0.0951      2.00000
     11       0.5201      2.00000
     12       1.7410      2.00000
     13       2.3710      2.00000
     14       4.4071      2.01136
     15       6.1095      2.03244
     16       6.1794      1.89746
     17      10.8699     -0.04116
     18      10.9776      0.00000
     19      12.9687      0.00000
     20      14.2194      0.00000
     21      14.4880      0.00000
     22      16.1674      0.00000
     23      16.2069      0.00000
     24      16.6392      0.00000
     25      16.9505      0.00000
     26      20.2127      0.00000
     27      20.9005      0.00000
     28      21.0582      0.00000
     29      21.0628      0.00000
     30      22.0891      0.00000
     31      22.1029      0.00000
     32      22.1197      0.00000
     33      22.2645      0.00000
     34      23.0113      0.00000
     35      27.2454      0.00000
     36      27.4061      0.00000
     37      28.5085      0.00000
     38      28.8611      0.00000
     39      30.5218      0.00000
     40      30.8251      0.00000

 k-point   9 :       0.0000    0.0000    0.3333
  band No.  band energies     occupation 
      1     -12.6868      2.00000
      2      -7.6517      2.00000
      3      -7.6400      2.00000
      4      -7.6177      2.00000
      5      -6.6301      2.00000
      6      -6.6163      2.00000
      7      -6.5695      2.00000
      8      -1.6338      2.00000
      9      -0.2808      2.00000
     10      -0.2167      2.00000
     11      -0.1664      2.00000
     12       3.0034      2.00000
     13       3.0852      2.00000
     14       3.4826      2.00000
     15       3.5117      2.00000
     16       3.5807      2.00000
     17       7.5346      0.27297
     18       7.5537      0.23984
     19       7.6221      0.05233
     20      14.6770      0.00000
     21      14.7062      0.00000
     22      14.7370      0.00000
     23      14.9356      0.00000
     24      14.9704      0.00000
     25      16.8234      0.00000
     26      20.6642      0.00000
     27      22.5025      0.00000
     28      22.5816      0.00000
     29      22.7965      0.00000
     30      25.5588      0.00000
     31      26.3098      0.00000
     32      26.4390      0.00000
     33      26.9609      0.00000
     34      27.3834      0.00000
     35      27.5136      0.00000
     36      27.8390      0.00000
     37      28.2880      0.00000
     38      29.5412      0.00000
     39      30.2148      0.00000
     40      31.6685      0.00000

 k-point  10 :       0.3333    0.0000    0.3333
  band No.  band energies     occupation 
      1     -12.0399      2.00000
      2     -10.1741      2.00000
      3      -8.4246      2.00000
      4      -8.3843      2.00000
      5      -4.8966      2.00000
      6      -4.8901      2.00000
      7      -3.1903      2.00000
      8      -1.6930      2.00000
      9      -1.6370      2.00000
     10      -0.8655      2.00000
     11       0.3760      2.00000
     12       1.0481      2.00000
     13       1.2917      2.00000
     14       1.8881      2.00000
     15       3.2081      2.00000
     16       3.2257      2.03331
     17       8.3446      0.09126
     18       8.4085     -0.04763
     19      10.7139     -0.01073
     20      14.8539      0.00000
     21      14.9499      0.00000
     22      15.3944      0.00000
     23      17.0723      0.00000
     24      17.1826      0.00000
     25      17.3869      0.00000
     26      19.9089      0.00000
     27      19.9686      0.00000
     28      21.4704      0.00000
     29      22.6497      0.00000
     30      22.9687      0.00000
     31      23.0882      0.00000
     32      23.5725      0.00000
     33      24.8500      0.00000
     34      25.2252      0.00000
     35      28.7890      0.00000
     36      28.9871      0.00000
     37      30.1105      0.00000
     38      30.3288      0.00000
     39      30.7097      0.00000
     40      32.0626      0.00000

 k-point  11 :       0.3333    0.3333    0.3333
  band No.  band energies     occupation 
      1     -10.8092      2.00000
      2     -10.7946      2.00000
      3     -10.7765      2.00000
      4      -6.0580      2.00000
      5      -6.0066      2.00000
      6      -4.0477      2.00000
      7      -1.4788      2.00000
      8      -1.4322      2.00000
      9      -1.4221      2.00000
     10      -0.1921      2.00000
     11      -0.1606      2.00000
     12      -0.0773      2.00000
     13       0.6137      2.00000
     14       0.6297      2.00000
     15       0.6792      2.00000
     16       5.8235      2.00254
     17       5.8584      1.60941
     18      12.0614     -0.04412
     19      12.1053      0.00000
     20      12.1852      0.00000
     21      16.8637      0.00000
     22      16.9154      0.00000
     23      16.9842      0.00000
     24      17.3078      0.00000
     25      18.5889      0.00000
     26      18.6960      0.00000
     27      19.0614      0.00000
     28      21.8406      0.00000
     29      22.0562      0.00000
     30      22.4819      0.00000
     31      22.5451      0.00000
     32      22.6929      0.00000
     33      24.4828      0.00000
     34      24.9225      0.00000
     35      25.5123      0.00000
     36      27.5852      0.00000
     37      30.1587      0.00000
     38      30.7077      0.00000
     39      31.0517      0.00000
     40      31.9576      0.00000

 k-point  12 :      -0.3333    0.3333    0.3333
  band No.  band energies     occupation 
      1     -12.0389      2.00000
      2     -10.1770      2.00000
      3      -8.4225      2.00000
      4      -8.4052      2.00000
      5      -4.8924      2.00000
      6      -4.8624      2.00000
      7      -3.1692      2.00000
      8      -1.7306      2.00000
      9      -1.6747      2.00000
     10      -0.8722      2.00000
     11       0.4400      2.00000
     12       0.9242      2.00000
     13       1.3025      2.00000
     14       1.9727      2.00000
     15       3.2171      2.00000
     16       3.2380      2.02821
     17       8.3226      0.12794
     18       8.3596     -0.02395
     19      10.6802     -0.01112
     20      14.8035      0.00000
     21      14.9806      0.00000
     22      15.4142      0.00000
     23      17.0299      0.00000
     24      17.1015      0.00000
     25      17.3664      0.00000
     26      19.9000      0.00000
     27      20.0294      0.00000
     28      21.6733      0.00000
     29      22.6517      0.00000
     30      22.8134      0.00000
     31      23.2542      0.00000
     32      23.6701      0.00000
     33      25.0862      0.00000
     34      25.5807      0.00000
     35      28.7501      0.00000
     36      29.2630      0.00000
     37      30.0359      0.00000
     38      30.2226      0.00000
     39      31.0762      0.00000
     40      31.9189      0.00000

 k-point  13 :       0.0000    0.0000    0.5000
  band No.  band energies     occupation 
      1     -12.0589      2.00000
      2      -7.1548      2.00000
      3      -7.1436      2.00000
      4      -7.1258      2.00000
      5      -6.2488      2.00000
      6      -6.2383      2.00000
      7      -6.2115      2.00000
      8      -3.1561      2.00000
      9      -0.1469      2.00000
     10      -0.1314      2.00000
     11       0.0175      2.00000
     12       2.1801      2.00000
     13       2.2021      2.00000
     14       2.2113      2.00000
     15       3.1184      2.00000
     16       3.3495      2.00000
     17       6.3264      2.26055
     18       6.3515      2.23654
     19       6.4210      0.39640
     20      15.1377      0.00000
     21      15.1745      0.00000
     22      15.3491      0.00000
     23      15.3625      0.00000
     24      15.3909      0.00000
     25      16.5475      0.00000
     26      20.6582      0.00000
     27      21.5497      0.00000
     28      21.5808      0.00000
     29      21.6576      0.00000
     30      26.2523      0.00000
     31      26.2994      0.00000
     32      26.4179      0.00000
     33      26.5918      0.00000
     34      27.1929      0.00000
     35      27.7201      0.00000
     36      28.2117      0.00000
     37      28.7686      0.00000
     38      30.3698      0.00000
     39      31.1213      0.00000
     40      32.2490      0.00000

 k-point  14 :       0.3333    0.0000    0.5000
  band No.  band energies     occupation 
      1     -11.4330      2.00000
      2      -9.6440      2.00000
      3      -7.9189      2.00000
      4      -7.9018      2.00000
      5      -4.5346      2.00000
      6      -4.5168      2.00000
      7      -2.8810      2.00000
      8      -2.3558      2.00000
      9      -1.4801      2.00000
     10      -1.4202      2.00000
     11      -0.0996      2.00000
     12       0.5394      2.00000
     13       1.0375      2.00000
     14       1.8783      2.00000
     15       1.9099      2.00000
     16       2.0602      2.00000
     17       7.2099      1.41748
     18       7.2284      0.47781
     19       9.7637     -0.01505
     20      14.3301      0.00000
     21      15.4744      0.00000
     22      15.5174      0.00000
     23      17.5191      0.00000
     24      17.7835      0.00000
     25      17.8289      0.00000
     26      18.3776      0.00000
     27      18.3955      0.00000
     28      21.6690      0.00000
     29      22.6191      0.00000
     30      22.6951      0.00000
     31      22.8935      0.00000
     32      22.9389      0.00000
     33      25.0512      0.00000
     34      25.7723      0.00000
     35      27.2348      0.00000
     36      28.6949      0.00000
     37      28.9561      0.00000
     38      29.8357      0.00000
     39      30.6024      0.00000
     40      30.9368      0.00000

 k-point  15 :       0.3333    0.3333    0.5000
  band No.  band energies     occupation 
      1     -10.2530      2.00000
      2     -10.2442      2.00000
      3     -10.2079      2.00000
      4      -5.6148      2.00000
      5      -5.5813      2.00000
      6      -3.7761      2.00000
      7      -1.1899      2.00000
      8      -1.1782      2.00000
      9      -1.0967      2.00000
     10      -0.8420      2.00000
     11      -0.8381      2.00000
     12      -0.8244      2.00000
     13       0.0027      2.00000
     14       0.0504      2.00000
     15       0.1730      2.00000
     16       4.6018      2.00000
     17       4.6752      2.61136
     18      11.2044     -0.13676
     19      11.2714      0.00000
     20      11.3184      0.00000
     21      16.0969      0.00000
     22      17.3508      0.00000
     23      17.3629      0.00000
     24      17.3930      0.00000
     25      18.8414      0.00000
     26      18.8603      0.00000
     27      18.8714      0.00000
     28      21.4174      0.00000
     29      21.4258      0.00000
     30      21.4374      0.00000
     31      22.1369      0.00000
     32      22.2330      0.00000
     33      24.6625      0.00000
     34      24.7246      0.00000
     35      24.8606      0.00000
     36      25.9682      0.00000
     37      31.1980      0.00000
     38      32.1448      0.00000
     39      32.2486      0.00000
     40      32.3723      0.00000

 k-point  16 :      -0.3333    0.3333    0.5000
  band No.  band energies     occupation 
      1     -11.4357      2.00000
      2      -9.6451      2.00000
      3      -7.9208      2.00000
      4      -7.9113      2.00000
      5      -4.5104      2.00000
      6      -4.5025      2.00000
      7      -2.8512      2.00000
      8      -2.3692      2.00000
      9      -1.5092      2.00000
     10      -1.4481      2.00000
     11      -0.1009      2.00000
     12       0.5092      2.00000
     13       1.0981      2.00000
     14       1.8847      2.00000
     15       1.9030      2.00000
     16       2.0294      2.00000
     17       7.1894      1.41616
     18       7.2459      0.43453
     19       9.7449     -0.01688
     20      14.3653      0.00000
     21      15.4574      0.00000
     22      15.5054      0.00000
     23      17.5327      0.00000
     24      17.7651      0.00000
     25      17.7923      0.00000
     26      18.3751      0.00000
     27      18.3873      0.00000
     28      21.6601      0.00000
     29      22.6208      0.00000
     30      22.6459      0.00000
     31      22.8732      0.00000
     32      22.9404      0.00000
     33      25.0278      0.00000
     34      25.7365      0.00000
     35      27.2645      0.00000
     36      28.8059      0.00000
     37      29.8481      0.00000
     38      30.2511      0.00000
     39      30.7765      0.00000
     40      30.9672      0.00000


----------------------------------------- Iteration    1(   3)  ---------------------------------------


     EDDAV:  cpu time    1.83: real time    1.83
 BZINTS: Fermi energy:  7.268637; 32.000000 electrons
         Band energy: -86.966582;  BLOECHL correction: -0.666820
       DOS:  cpu time    0.01: real time    0.01
    --------------------------------------------
      LOOP:  cpu time    1.84: real time    1.84

 eigenvalue-minimisations  :  1500
 total energy-change (2. order) :-0.2282336E+01  (-0.2270663E+01)
 number of electron      32.0000000 magnetization 
 augmentation part       32.0000000 magnetization 

 Free energy of the ion-electron system (eV)
  ---------------------------------------------------
  alpha Z        PSCENC =       101.11973060
  Ewald energy   TEWEN  =     -1248.61899323
  -1/2 Hartree   DENC   =      -121.24107553
  -exchange  EXHF       =         0.00000000
  -V(xc)+E(xc)   XCENC  =       113.20728244
  PAW double counting   =       302.65154477     -311.85538214
  entropy T*S    EENTRO =         0.00000000
  eigenvalues    EBANDS =       -86.96658236
  atomic energy  EATOM  =      1177.18737338
  ---------------------------------------------------
  free energy    TOTEN  =       -74.51610206 eV

  energy without entropy =      -74.51610206  energy(sigma->0) =      -74.51610206


--------------------------------------------------------------------------------------------------------


 E-fermi :   7.2686     XC(G=0): -12.8513     alpha+bet :-15.5734


 k-point   1 :       0.0000    0.0000    0.0000
  band No.  band energies     occupation 
      1     -14.0308      2.00000
      2      -8.8087      2.00000
      3      -8.8085      2.00000
      4      -8.8084      2.00000
      5      -7.5938      2.00000
      6      -7.5937      2.00000
      7      -7.5932      2.00000
      8      -0.7698      2.00000
      9      -0.7695      2.00000
     10      -0.7693      2.00000
     11       2.5165      2.00000
     12       2.5176      2.00000
     13       3.6393      2.00000
     14       7.9509      1.65327
     15       7.9512      0.44713
     16       7.9515      0.44670
     17      12.1787      0.00000
     18      12.1790      0.00000
     19      12.1794      0.00000
     20      12.9834      0.00000
     21      12.9835      0.00000
     22      12.9837      0.00000
     23      14.2393      0.00000
     24      14.2405      0.00000
     25      17.4136      0.00000
     26      17.7106      0.00000
     27      19.4716      0.00000
     28      21.8121      0.00000
     29      21.8126      0.00000
     30      21.8129      0.00000
     31      22.1649      0.00000
     32      22.1653      0.00000
     33      22.1656      0.00000
     34      25.6005      0.00000
     35      25.6053      0.00000
     36      25.6199      0.00000
     37      28.2840      0.00000
     38      30.6511      0.00000
     39      30.6773      0.00000
     40      30.7769      0.00000

 k-point   2 :       0.3333    0.0000    0.0000
  band No.  band energies     occupation 
      1     -13.3690      2.00000
      2     -11.4216      2.00000
      3      -9.5691      2.00000
      4      -9.5690      2.00000
      5      -5.8269      2.00000
      6      -5.8266      2.00000
      7      -4.0417      2.00000
      8      -2.3814      2.00000
      9      -2.3811      2.00000
     10      -0.1456      2.00000
     11       0.2501      2.00000
     12       1.4285      2.00000
     13       4.3193      2.00000
     14       6.2045      1.99615
     15       7.8269      1.04895
     16       7.8272      0.35509
     17      12.4704      0.00000
     18      12.4710      0.00000
     19      13.3476      0.00000
     20      14.1007      0.00000
     21      14.5857      0.00000
     22      15.5655      0.00000
     23      15.5657      0.00000
     24      16.7200      0.00000
     25      17.9445      0.00000
     26      18.1145      0.00000
     27      19.0093      0.00000
     28      19.8856      0.00000
     29      20.1626      0.00000
     30      20.1633      0.00000
     31      21.3663      0.00000
     32      21.3671      0.00000
     33      21.7401      0.00000
     34      22.0103      0.00000
     35      26.5865      0.00000
     36      26.6396      0.00000
     37      30.0759      0.00000
     38      30.4412      0.00000
     39      30.6306      0.00000
     40      31.1351      0.00000

 k-point   3 :       0.3333    0.3333    0.0000
  band No.  band energies     occupation 
      1     -12.0639      2.00000
      2     -12.0639      2.00000
      3     -12.0638      2.00000
      4      -7.0940      2.00000
      5      -7.0936      2.00000
      6      -4.7900      2.00000
      7      -2.2031      2.00000
      8      -2.2026      2.00000
      9      -2.2024      2.00000
     10      -0.7547      2.00000
     11      -0.7546      2.00000
     12      -0.7542      2.00000
     13       5.6186      2.00000
     14       5.6188      2.00000
     15       5.6189      2.18060
     16      10.0842     -0.45217
     17      10.0852      0.00000
     18      15.5719      0.00000
     19      15.5722      0.00000
     20      15.5729      0.00000
     21      15.6750      0.00000
     22      15.6761      0.00000
     23      15.6770      0.00000
     24      17.0592      0.00000
     25      17.0600      0.00000
     26      17.0608      0.00000
     27      19.3608      0.00000
     28      19.3615      0.00000
     29      19.4000      0.00000
     30      19.4001      0.00000
     31      19.4007      0.00000
     32      21.0671      0.00000
     33      22.8360      0.00000
     34      22.8373      0.00000
     35      22.8434      0.00000
     36      29.0480      0.00000
     37      29.0531      0.00000
     38      29.1794      0.00000
     39      30.3429      0.00000
     40      31.3166      0.00000

 k-point   4 :      -0.3333    0.3333    0.0000
  band No.  band energies     occupation 
      1     -13.3690      2.00000
      2     -11.4216      2.00000
      3      -9.5691      2.00000
      4      -9.5691      2.00000
      5      -5.8270      2.00000
      6      -5.8269      2.00000
      7      -4.0415      2.00000
      8      -2.3811      2.00000
      9      -2.3809      2.00000
     10      -0.1458      2.00000
     11       0.2508      2.00000
     12       1.4279      2.00000
     13       4.3191      2.00000
     14       6.2043      2.00181
     15       7.8271      1.08823
     16       7.8271      0.39784
     17      12.4703      0.00000
     18      12.4706      0.00000
     19      13.3471      0.00000
     20      14.1004      0.00000
     21      14.5867      0.00000
     22      15.5659      0.00000
     23      15.5663      0.00000
     24      16.7213      0.00000
     25      17.9451      0.00000
     26      18.1144      0.00000
     27      19.0088      0.00000
     28      19.8855      0.00000
     29      20.1629      0.00000
     30      20.1647      0.00000
     31      21.3661      0.00000
     32      21.3667      0.00000
     33      21.7380      0.00000
     34      22.0101      0.00000
     35      26.5840      0.00000
     36      26.6454      0.00000
     37      30.0892      0.00000
     38      30.3816      0.00000
     39      30.5834      0.00000
     40      31.1203      0.00000

 k-point   5 :       0.0000    0.0000    0.1667
  band No.  band energies     occupation 
      1     -13.6476      2.00000
      2      -8.4753      2.00000
      3      -8.4750      2.00000
      4      -8.4749      2.00000
      5      -7.3078      2.00000
      6      -7.3077      2.00000
      7      -7.3072      2.00000
      8      -0.6283      2.00000
      9      -0.6280      2.00000
     10      -0.6277      2.00000
     11       1.5829      2.00000
     12       2.6288      2.00000
     13       2.6299      2.00000
     14       6.2419      1.99757
     15       6.2421      2.02357
     16       6.2426      2.02342
     17      10.2063      0.00000
     18      10.2065      0.00000
     19      10.2072      0.00000
     20      13.6293      0.00000
     21      13.6294      0.00000
     22      13.6296      0.00000
     23      14.4354      0.00000
     24      14.4366      0.00000
     25      17.2997      0.00000
     26      19.8230      0.00000
     27      20.3403      0.00000
     28      22.9491      0.00000
     29      22.9503      0.00000
     30      22.9553      0.00000
     31      23.9242      0.00000
     32      23.9288      0.00000
     33      23.9472      0.00000
     34      25.6778      0.00000
     35      25.6891      0.00000
     36      25.7657      0.00000
     37      28.9787      0.00000
     38      31.3163      0.00000
     39      31.4159      0.00000
     40      31.5816      0.00000

 k-point   6 :       0.3333    0.0000    0.1667
  band No.  band energies     occupation 
      1     -12.9930      2.00000
      2     -11.0678      2.00000
      3      -9.2366      2.00000
      4      -9.2365      2.00000
      5      -5.5542      2.00000
      6      -5.5539      2.00000
      7      -3.7958      2.00000
      8      -2.1917      2.00000
      9      -2.1914      2.00000
     10      -0.0077      2.00000
     11       0.4175      2.00000
     12       1.5538      2.00000
     13       2.2951      2.00000
     14       4.2948      2.01006
[...]
     10      -1.1921      2.00000
     11      -1.1921      2.00000
     12       2.0795      2.00000
     13       2.2551      2.00000
     14       2.2830      2.00000
     15       2.2830      2.00000
     16       2.4748      2.00000
     17       6.2168      0.00000
     18       6.3414      0.00000
     19       6.3414      0.00000
     20      12.4994      0.00000
     21      12.7917      0.00000
     22      12.7917      0.00000
     23      13.3155      0.00000
     24      13.7866      0.00000
     25      14.6934      0.00000
     26      16.5285      0.00000
     27      17.9425      0.00000
     28      18.5353      0.00000
     29      18.6052      0.00000
     30      18.6052      0.00000
     31      20.9408      0.00000
     32      20.9408      0.00000
     33      21.1211      0.00000
     34      25.1737      0.00000
     35      25.1777      0.00000
     36      25.1777      0.00000
     37      25.7781      0.00000
     38      25.9249      0.00000
     39      26.1103      0.00000
     40      26.1103      0.00000

 k-point  10 :       0.3333    0.0000    0.3333
  band No.  band energies     occupation 
      1     -13.6275      2.00000
      2     -11.7105      2.00000
      3      -9.8542      2.00000
      4      -9.8218      2.00000
      5      -6.2171      2.00000
      6      -6.1913      2.00000
      7      -4.4207      2.00000
      8      -2.8649      2.00000
      9      -2.8031      2.00000
     10      -2.2790      2.00000
     11      -0.5644      2.00000
     12      -0.1127      2.00000
     13      -0.0332      2.00000
     14       1.0254      2.00000
     15       2.0094      2.00000
     16       2.0874      2.00452
     17       7.2235     -0.04181
     18       7.2623      0.00000
     19       9.7136      0.00000
     20      13.0892      0.00000
     21      13.5576      0.00000
     22      14.3617      0.00000
     23      15.1269      0.00000
     24      15.3923      0.00000
     25      15.4118      0.00000
     26      16.2004      0.00000
     27      16.5613      0.00000
     28      16.6302      0.00000
     29      17.1149      0.00000
     30      19.1717      0.00000
     31      20.0360      0.00000
     32      20.3186      0.00000
     33      21.4734      0.00000
     34      21.7971      0.00000
     35      22.0321      0.00000
     36      22.0936      0.00000
     37      24.0110      0.00000
     38      25.5161      0.00000
     39      25.6279      0.00000
     40      26.6190      0.00000

 k-point  11 :       0.3333    0.3333    0.3333
  band No.  band energies     occupation 
      1     -12.3518      2.00000
      2     -12.3278      2.00000
      3     -12.3278      2.00000
      4      -7.4700      2.00000
      5      -7.2657      2.00000
      6      -5.3486      2.00000
      7      -2.5950      2.00000
      8      -2.5950      2.00000
      9      -2.4594      2.00000
     10      -1.3005      2.00000
     11      -1.1664      2.00000
     12      -1.1664      2.00000
     13      -0.7612      2.00000
     14      -0.7171      2.00000
     15      -0.7171      2.00000
     16       4.6420      1.99321
     17       4.8499      0.24269
     18      11.2689      0.00000
     19      11.2689      0.00000
     20      11.3298      0.00000
     21      14.6589      0.00000
     22      15.1782      0.00000
     23      15.3493      0.00000
     24      15.3493      0.00000
     25      16.2793      0.00000
     26      16.3369      0.00000
     27      16.3369      0.00000
     28      16.6938      0.00000
     29      16.6938      0.00000
     30      17.2917      0.00000
     31      19.4122      0.00000
     32      19.9139      0.00000
     33      22.4161      0.00000
     34      22.4249      0.00000
     35      22.4732      0.00000
     36      22.4732      0.00000
     37      22.7053      0.00000
     38      22.9670      0.00000
     39      22.9670      0.00000
     40      24.7186      0.00000

 k-point  12 :      -0.3333    0.3333    0.3333
  band No.  band energies     occupation 
      1     -13.6197      2.00000
      2     -11.6781      2.00000
      3      -9.8960      2.00000
      4      -9.8960      2.00000
      5      -6.1401      2.00000
      6      -6.1401      2.00000
      7      -4.4004      2.00000
      8      -2.8474      2.00000
      9      -2.8474      2.00000
     10      -2.2647      2.00000
     11      -0.6117      2.00000
     12      -0.1421      2.00000
     13       0.0331      2.00000
     14       1.0622      2.00000
     15       1.9528      2.00000
     16       1.9528      2.00439
     17       7.3383     -0.04285
     18       7.3383      0.00000
     19       9.7051      0.00000
     20      12.8483      0.00000
     21      13.5654      0.00000
     22      14.3822      0.00000
     23      15.3810      0.00000
     24      15.4005      0.00000
     25      15.4005      0.00000
     26      15.9381      0.00000
     27      16.5653      0.00000
     28      16.5653      0.00000
     29      17.1128      0.00000
     30      19.3365      0.00000
     31      20.2392      0.00000
     32      20.2392      0.00000
     33      21.4396      0.00000
     34      21.8940      0.00000
     35      22.1814      0.00000
     36      22.1814      0.00000
     37      24.0908      0.00000
     38      25.5401      0.00000
     39      25.5401      0.00000
     40      26.7487      0.00000

 k-point  13 :       0.0000    0.0000    0.5000
  band No.  band energies     occupation 
      1     -14.1630      2.00000
      2      -9.0106      2.00000
      3      -9.0106      2.00000
      4      -8.8492      2.00000
      5      -8.0089      2.00000
      6      -7.9159      2.00000
      7      -7.9159      2.00000
      8      -3.5872      2.00000
      9      -1.2429      2.00000
     10      -1.1692      2.00000
     11      -1.1692      2.00000
     12       1.8817      2.00000
     13       1.8817      2.00000
     14       2.0711      2.00000
     15       2.0971      2.00000
     16       2.2732      2.00000
     17       5.7726      0.00000
     18       5.8852      0.00000
     19       5.8852      0.00000
     20      12.6478      0.00000
     21      12.9399      0.00000
     22      12.9399      0.00000
     23      13.3548      0.00000
     24      13.8271      0.00000
     25      16.5185      0.00000
     26      17.0361      0.00000
     27      18.0531      0.00000
     28      18.6919      0.00000
     29      18.7801      0.00000
     30      18.7801      0.00000
     31      23.8565      0.00000
     32      23.8565      0.00000
     33      24.0012      0.00000
     34      24.8298      0.00000
     35      25.1264      0.00000
     36      25.1264      0.00000
     37      25.1865      0.00000
     38      25.1952      0.00000
     39      25.1952      0.00000
     40      25.2329      0.00000

 k-point  14 :       0.3333    0.0000    0.5000
  band No.  band energies     occupation 
      1     -13.5172      2.00000
      2     -11.6125      2.00000
      3      -9.7674      2.00000
      4      -9.7352      2.00000
      5      -6.1548      2.00000
      6      -6.1296      2.00000
      7      -4.3683      2.00000
      8      -2.8260      2.00000
      9      -2.7900      2.00000
     10      -2.7648      2.00000
     11      -0.5429      2.00000
     12      -0.5066      2.00000
     13      -0.0801      2.00000
     14       1.0468      2.00000
     15       1.5795      2.00000
     16       1.6556      2.00000
     17       6.8550     -0.06051
     18       6.8853      0.00000
     19       9.3719      0.00000
     20      13.2180      0.00000
     21      13.6505      0.00000
     22      14.2073      0.00000
     23      15.3597      0.00000
     24      15.6626      0.00000
     25      16.1526      0.00000
     26      16.2164      0.00000
     27      16.2352      0.00000
     28      17.5135      0.00000
     29      18.4482      0.00000
     30      19.3367      0.00000
     31      20.8048      0.00000
     32      21.1422      0.00000
     33      21.5506      0.00000
     34      22.7377      0.00000
     35      23.7615      0.00000
     36      23.8277      0.00000
     37      24.2518      0.00000
     38      26.0141      0.00000
     39      26.0701      0.00000
     40      26.2444      0.00000

 k-point  15 :       0.3333    0.3333    0.5000
  band No.  band energies     occupation 
      1     -12.2498      2.00000
      2     -12.2261      2.00000
      3     -12.2261      2.00000
      4      -7.3976      2.00000
      5      -7.1927      2.00000
      6      -5.2981      2.00000
      7      -2.5543      2.00000
      8      -2.5543      2.00000
      9      -2.4180      2.00000
     10      -1.2672      2.00000
     11      -1.2505      2.00000
     12      -1.2083      2.00000
     13      -1.2083      2.00000
     14      -1.1311      2.00000
     15      -1.1311      2.00000
     16       4.2674      2.00000
     17       4.4724      0.64272
     18      11.0024      0.00000
     19      11.0024      0.00000
     20      11.0599      0.00000
     21      14.0044      0.00000
     22      15.3276      0.00000
     23      15.4998      0.00000
     24      15.4998      0.00000
     25      16.7934      0.00000
     26      16.7934      0.00000
     27      17.4001      0.00000
     28      17.4823      0.00000
     29      17.5787      0.00000
     30      17.5787      0.00000
     31      19.9280      0.00000
     32      20.4951      0.00000
     33      22.6363      0.00000
     34      22.9047      0.00000
     35      23.1937      0.00000
     36      23.1937      0.00000
     37      23.2527      0.00000
     38      23.2527      0.00000
     39      23.2675      0.00000
     40      25.8264      0.00000

 k-point  16 :      -0.3333    0.3333    0.5000
  band No.  band energies     occupation 
      1     -13.5095      2.00000
      2     -11.5805      2.00000
      3      -9.8088      2.00000
      4      -9.8088      2.00000
      5      -6.0779      2.00000
      6      -6.0779      2.00000
      7      -4.3487      2.00000
      8      -2.8092      2.00000
      9      -2.8092      2.00000
     10      -2.7757      2.00000
     11      -0.5897      2.00000
     12      -0.4413      2.00000
     13      -0.1106      2.00000
     14       1.0841      2.00000
     15       1.5230      2.00000
     16       1.5230      2.00000
     17       6.9614     -0.06219
     18       6.9614      0.00000
     19       9.3733      0.00000
     20      12.9774      0.00000
     21      13.6626      0.00000
     22      14.2183      0.00000
     23      15.6547      0.00000
     24      15.6547      0.00000
     25      15.9715      0.00000
     26      16.1549      0.00000
     27      16.1549      0.00000
     28      17.5185      0.00000
     29      18.4174      0.00000
     30      19.5076      0.00000
     31      21.1411      0.00000
     32      21.1411      0.00000
     33      21.4623      0.00000
     34      22.9793      0.00000
     35      23.7836      0.00000
     36      23.7836      0.00000
     37      24.3255      0.00000
     38      26.0717      0.00000
     39      26.2261      0.00000
     40      26.2261      0.00000


--------------------------------------------------------------------------------------------------------


 soft charge-density along one line, spin component           1
         0         1         2         3         4         5         6         7         8         9
 total charge-density along one line
 
 pseudopotential strength for first ion, spin component:           1
  9.742   0.004  -0.000  -0.000   0.000  -0.000   0.000   0.000
  0.004  -0.002   0.000   0.000  -0.000  -0.000   0.000   0.000
 -0.000   0.000  -3.921  -0.000   0.000  -0.015  -0.000   0.000
 -0.000   0.000  -0.000  -3.915   0.000  -0.000  -0.012   0.000
  0.000  -0.000   0.000   0.000  -3.921   0.000   0.000  -0.015
 -0.000  -0.000  -0.015  -0.000   0.000  -0.763  -0.000  -0.000
  0.000   0.000  -0.000  -0.012   0.000  -0.000  -0.763   0.000
  0.000   0.000   0.000   0.000  -0.015  -0.000   0.000  -0.763
 total augmentation occupancy for first ion, spin component:           1
  1.472  -1.137   0.005  -0.000  -0.008   0.002  -0.000  -0.003
 -1.137   1.098  -0.008  -0.000   0.013  -0.003   0.000   0.004
  0.005  -0.008   1.218  -0.000  -0.010   0.228  -0.000  -0.002
 -0.000   0.000  -0.000   0.919   0.000  -0.000   0.131  -0.000
 -0.008   0.013  -0.010  -0.000   1.229  -0.002   0.000   0.231
  0.002  -0.003   0.228  -0.000  -0.002   0.048  -0.000  -0.000
 -0.000   0.000  -0.000   0.131  -0.000  -0.000   0.020   0.000
 -0.003   0.004  -0.002   0.000   0.231  -0.000  -0.000   0.049


------------------------ aborting loop because EDIFF is reached ----------------------------------------


    CHARGE:  cpu time    0.05: real time    0.05
    FORLOC:  cpu time    0.00: real time    0.00
    FORNL :  cpu time    0.07: real time    0.07
    STRESS:  cpu time    0.29: real time    0.29
    FORHAR:  cpu time    0.01: real time    0.01
    MIXING:  cpu time    0.00: real time    0.00

  FORCE on cell =-STRESS in cart. coord.  units (eV):
  Direction    XX          YY          ZZ          XY          YZ          ZX
  --------------------------------------------------------------------------------------
  Alpha Z    77.44857    77.44857    77.44857
  Ewald     103.33547    94.07981 -1174.24279    -8.01564     0.00000    -0.00000
  Hartree   284.00433   282.23220  -237.25386    -1.53471     0.00000    -0.00000
  E(xc)    -117.10760  -117.14229  -121.26841    -0.03004     0.00000    -0.00000
  Local    -797.14675  -787.37149   931.52465     8.46563    -0.00000     0.00000
  n-local   -27.86379   -27.85924   -26.37984     0.30432    -0.10965    -0.07201
  augment    -3.07475    -3.06297    -2.81380     0.01020    -0.00000    -0.00000
  Kinetic   474.40817   487.65773   552.96412    -2.70102     1.35255     0.88255
  Fock        0.00000     0.00000     0.00000     0.00000     0.00000     0.00000
  -------------------------------------------------------------------------------------
  Total       0.01172    -0.02573    -0.02135    -0.03243     0.00000     0.00000
  in kB       0.27880    -0.61229    -0.50814    -0.77170     0.00000     0.00000
  external pressure =       -0.28 kB  Pullay stress =        0.00 kB


 VOLUME and BASIS-vectors are now :
 -----------------------------------------------------------------------------
  energy-cutoff  :      500.00
  volume of cell :       67.33
      direct lattice vectors                 reciprocal lattice vectors
     4.916532967  0.018666972 -0.000000000     0.202954364  0.116150574 -0.000000000
    -2.442100412  4.267175934 -0.000000000    -0.000887834  0.233838922  0.000000000
     0.000000000  0.000000000  3.202405412    -0.000000000  0.000000000  0.312265273

  length of vectors
     4.916568404  4.916568404  3.202405412     0.233840607  0.233840607  0.312265273


 FORCES acting on ions
    electron-ion (+dipol)            ewald-force                    non-local-force                 convergence-correction
 -----------------------------------------------------------------------------------------------
   -.295E+01 0.171E+01 -.690E-05   0.291E+01 -.168E+01 0.327E-15   0.505E-01 -.292E-01 -.190E-18   0.431E-04 -.249E-04 0.237E-08
   0.295E+01 -.171E+01 -.690E-05   -.291E+01 0.168E+01 0.264E-15   -.505E-01 0.292E-01 -.461E-18   -.431E-04 0.249E-04 0.237E-08
   -.295E+01 0.171E+01 -.690E-05   0.291E+01 -.168E+01 -.213E-16   0.505E-01 -.292E-01 0.190E-18   0.431E-04 -.249E-04 0.237E-08
   0.295E+01 -.171E+01 -.690E-05   -.291E+01 0.168E+01 0.332E-15   -.505E-01 0.292E-01 -.515E-18   -.431E-04 0.249E-04 0.237E-08
   -.295E+01 0.171E+01 -.690E-05   0.291E+01 -.168E+01 0.429E-15   0.505E-01 -.292E-01 -.136E-18   0.431E-04 -.249E-04 0.237E-08
   0.295E+01 -.171E+01 -.690E-05   -.291E+01 0.168E+01 0.487E-15   -.505E-01 0.292E-01 0.813E-19   -.431E-04 0.249E-04 0.237E-08
   -.295E+01 0.171E+01 -.690E-05   0.291E+01 -.168E+01 -.276E-15   0.505E-01 -.292E-01 0.190E-18   0.431E-04 -.249E-04 0.237E-08
   0.295E+01 -.171E+01 -.690E-05   -.291E+01 0.168E+01 0.233E-15   -.505E-01 0.292E-01 0.298E-18   -.431E-04 0.249E-04 0.237E-08
 -----------------------------------------------------------------------------------------------
   -.789E-04 0.460E-04 -.552E-04   -.178E-14 0.473E-13 0.177E-14   -.694E-16 -.971E-16 -.542E-18   0.497E-10 -.287E-10 0.190E-07
 
 
 POSITION                                       TOTAL-FORCE (eV/Angst)
 -----------------------------------------------------------------------------------
     -0.00340      0.00196      0.23432         0.000970     -0.000560      0.000000
      1.23520      0.71547      0.23432        -0.000970      0.000560     -0.000000
      2.45487      0.01130      0.23432         0.000970     -0.000560      0.000000
      3.69347      0.72480      0.23432        -0.000970      0.000560     -0.000000
     -1.22445      2.13555      0.23432         0.000970     -0.000560      0.000000
      0.01415      2.84906      0.23432        -0.000970      0.000560     -0.000000
      1.23382      2.14488      0.23432         0.000970     -0.000560      0.000000
      2.47242      2.85839      0.23432        -0.000970      0.000560     -0.000000
 -----------------------------------------------------------------------------------
    total drift:                               -0.000079      0.000046     -0.000055


--------------------------------------------------------------------------------------------------------



  FREE ENERGIE OF THE ION-ELECTRON SYSTEM (eV)
  ---------------------------------------------------
  free  energy   TOTEN  =       -72.929761 eV

  energy  without entropy=      -72.929761  energy(sigma->0) =      -72.929761
 
 d Force = 0.1190973E-04[ 0.146E-05, 0.224E-04]  d Energy = 0.1277726E-02-0.127E-02
 d Force = 0.4402764E-02[ 0.437E-02, 0.443E-02]  d Ewald  = 0.1349168E+01-0.134E+01


--------------------------------------------------------------------------------------------------------


    POTLOK:  cpu time    0.03: real time    0.03


--------------------------------------------------------------------------------------------------------


 stress matrix after NEB project (eV)
      0.01172     -0.03243      0.00000
     -0.03243     -0.02573      0.00000
      0.00000      0.00000     -0.02135
  FORCES: max atom, RMS     0.001121    0.001121
  FORCE total and by dimension    0.003169    0.000970
  Stress total and by dimension    0.057956    0.032431


--------------------------------------------------------------------------------------------------------


  
 reached required accuracy - stopping structural energy minimisation
 writing wavefunctions
     LOOP+:  cpu time    8.83: real time    8.85
    4ORBIT:  cpu time    0.00: real time    0.00
 BZINTS: Fermi energy:  5.207064; 32.000000 electrons
         Band energy:-127.008866;  BLOECHL correction: -0.106137

 total amount of memory used by VASP on root node    34261. kBytes
========================================================================

   base      :      30000. kBytes
   nonl-proj :       1566. kBytes
   fftplans  :        465. kBytes
   grid      :       1469. kBytes
   one-center:         24. kBytes
   wavefun   :        737. kBytes
 
  
  
 General timing and accounting informations for this job:
 ========================================================
  
                  Total CPU time used (sec):      162.601
                            User time (sec):      162.009
                          System time (sec):        0.592
                         Elapsed time (sec):      163.954
  
                   Maximum memory used (kb):       38952.
                   Average memory used (kb):           0.
  
                          Minor page faults:        21098
                          Major page faults:           34
                 Voluntary context switches:          487
