 vasp.5.2.11 25Nov10 complex 
 executed on             LinuxIFC date 2018.12.15  12:56:37
 running on   12 nodes
 distr:  one band on    1 nodes,   12 groups


--------------------------------------------------------------------------------------------------------


 INCAR:
 POTCAR:   PAW_PBE C 08Apr2002                    
 POTCAR:   PAW_PBE C 08Apr2002                    
   VRHFIN =C: s2p2                                                              
   LEXCH  = PE                                                                  
   EATOM  =   147.1560 eV,   10.8157 Ry                                         
                                                                                
   TITEL  = PAW_PBE C 08Apr2002                                                 
   LULTRA =        F    use ultrasoft PP ?                                      
   IUNSCR =        0    unscreen: 0-lin 1-nonlin 2-no                           
   RPACOR =     .000    partial core radius                                     
   POMASS =   12.011; ZVAL   =    4.000    mass and valenz                      
   RCORE  =    1.500    outmost cutoff radius                                   
   RWIGS  =    1.630; RWIGS  =     .863    wigner-seitz radius (au A)           
   ENMAX  =  400.000; ENMIN  =  300.000 eV                                      
   ICORE  =        2    local potential                                         
   LCOR   =        T    correct aug charges                                     
   LPAW   =        T    paw PP                                                  
   EAUG   =  644.873                                                            
   DEXC   =     .000                                                            
   RMAX   =    2.266    core radius for proj-oper                               
   RAUG   =    1.300    factor for augmentation sphere                          
   RDEP   =    1.501    radius for radial grids                                 
   RDEPT  =    1.300    core radius for aug-charge                              
   QCUT   =   -5.516; QGAM   =   11.032    optimization parameters              
                                                                                
   Description                                                                  
     l     E      TYP  RCUT    TYP  RCUT                                        
     0   .000     23  1.200                                                     
     0   .000     23  1.200                                                     
     1   .000     23  1.500                                                     
     1  2.500     23  1.500                                                     
     2   .000      7  1.500                                                     
  local pseudopotential read in
  atomic valenz-charges read in
  non local Contribution for L=           0  read in
    real space projection operators read in
  non local Contribution for L=           0  read in
    real space projection operators read in
  non local Contribution for L=           1  read in
    real space projection operators read in
  non local Contribution for L=           1  read in
    real space projection operators read in
    PAW grid and wavefunctions read in
 
   number of l-projection  operators is LMAX  =           4
   number of lm-projection operators is LMMAX =           8
 
 PAW_PBE C 08Apr2002                    :
 energy of atom  1       EATOM= -147.1560
 kinetic energy error for atom=    0.0076 (will be added to EATOM!!)
 
 
 POSCAR: graphite                                
  positions in direct lattice
  No initial velocities read in
 exchange correlation table for  LEXCH =        8
   RHO(1)=    0.500       N(1)  =     2000
   RHO(2)=  100.500       N(2)  =     4000

 VTST: version 3.1, (03/28/14)

 CHAIN: initializing optimizer
 
 OPT: Using VASP Conjugate-Gradient optimizer
 CHAIN: Read ICHAIN            0
 
 POSCAR: graphite                                
  positions in direct lattice
  No initial velocities read in
 


--------------------------------------------------------------------------------------------------------


 ion  position               nearest neighbor table
   1  0.000  0.000  0.073-   8 1.42   2 1.42   4 1.42
   2  0.333  0.167  0.073-   7 1.42   1 1.42   3 1.42
   3  0.500  0.000  0.073-   6 1.42   4 1.42   2 1.42
   4  0.833  0.167  0.073-   3 1.42   5 1.42   1 1.42
   5  0.000  0.500  0.073-   4 1.42   6 1.42   8 1.42
   6  0.333  0.667  0.073-   3 1.42   5 1.42   7 1.42
   7  0.500  0.500  0.073-   8 1.42   2 1.42   6 1.42
   8  0.833  0.667  0.073-   1 1.42   7 1.42   5 1.42
 
  LATTYP: Found a hexagonal cell.
 ALAT       =     4.9200000763
 C/A-ratio  =     0.5000000000
  
  Lattice vectors:
  
 A1 = (   4.9200000763,   0.0000000000,   0.0000000000)
 A2 = (  -2.4600000381,   4.2608450527,   0.0000000000)
 A3 = (   0.0000000000,   0.0000000000,   2.4600000381)
 Subroutine PRICEL returns following result:
 
  LATTYP: Found a hexagonal cell.
 ALAT       =     2.4600000382
 C/A-ratio  =     1.0000000000
  
  Lattice vectors:
  
 A1 = (   2.4600000382,   0.0000000000,   0.0000000000)
 A2 = (  -1.2300000191,   2.1304225263,   0.0000000000)
 A3 = (   0.0000000000,   0.0000000000,   2.4600000381)
 
   4 primitive cells build up your supercell.
 

Analysis of symmetry for initial positions (statically):

 Routine SETGRP: Setting up the symmetry group for a 
 hexagonal supercell.


 Subroutine GETGRP returns: Found  8 space group operations
 (whereof  2 operations were pure point group operations)
 out of a pool of 24 trial point group operations.


The static configuration has the point symmetry C_1h.
 The point group associated with its full space group is D_2h.

Analysis of symmetry for dynamics (positions and initial velocities):

 Subroutine DYNSYM returns: Found  8 space group operations
 (whereof  2 operations were pure point group operations)
 out of a pool of  8 trial space group operations
 (whereof  2 operations were pure point group operations)
 and found also     4 'primitive' translations


The dynamic configuration has the point symmetry C_1h.
 The point group associated with its full space group is D_2h.
 
 
 KPOINTS: Automatic mesh                          

Automatic generation of k-mesh.
 
 Subroutine IBZKPT returns following result:
 ===========================================
 
 Found     21 irreducible k-points:
 
 Following reciprocal coordinates:
            Coordinates               Weight
  0.000000  0.000000  0.000000      1.000000
  0.125000  0.000000  0.000000      4.000000
  0.250000  0.000000  0.000000      4.000000
  0.375000  0.000000  0.000000      4.000000
  0.500000  0.000000  0.000000      2.000000
  0.125000  0.125000  0.000000      2.000000
  0.250000  0.125000  0.000000      4.000000
  0.375000  0.125000  0.000000      4.000000
  0.500000  0.125000  0.000000      4.000000
 -0.375000  0.125000  0.000000      4.000000
 -0.250000  0.125000  0.000000      4.000000
 -0.125000  0.125000  0.000000      2.000000
  0.250000  0.250000  0.000000      2.000000
  0.375000  0.250000  0.000000      4.000000
  0.500000  0.250000  0.000000      4.000000
 -0.375000  0.250000  0.000000      4.000000
 -0.250000  0.250000  0.000000      2.000000
  0.375000  0.375000  0.000000      2.000000
  0.500000  0.375000  0.000000      4.000000
 -0.375000  0.375000  0.000000      2.000000
  0.500000  0.500000  0.000000      1.000000
 
 Following cartesian coordinates:
            Coordinates               Weight
  0.000000  0.000000  0.000000      1.000000
  0.025407  0.014668  0.000000      4.000000
  0.050813  0.029337  0.000000      4.000000
  0.076220  0.044005  0.000000      4.000000
  0.101626  0.058674  0.000000      2.000000
  0.025407  0.044005  0.000000      2.000000
  0.050813  0.058674  0.000000      4.000000
  0.076220  0.073342  0.000000      4.000000
  0.101626  0.088011  0.000000      4.000000
 -0.076220 -0.014668  0.000000      4.000000
 -0.050813  0.000000  0.000000      4.000000
 -0.025407  0.014668  0.000000      2.000000
  0.050813  0.088011  0.000000      2.000000
  0.076220  0.102679  0.000000      4.000000
  0.101626  0.117348  0.000000      4.000000
 -0.076220  0.014668  0.000000      4.000000
 -0.050813  0.029337  0.000000      2.000000
  0.076220  0.132016  0.000000      2.000000
  0.101626  0.146685  0.000000      4.000000
 -0.076220  0.044005  0.000000      2.000000
  0.101626  0.176021  0.000000      1.000000
 
 TETIRR: Found    100 inequivalent tetrahedra from      384


--------------------------------------------------------------------------------------------------------




 Dimension of arrays:
   k-points           NKPTS =     21   k-points in BZ     NKDIM =     21   number of bands    NBANDS=     24
   number of dos      NEDOS =    301   number of ions     NIONS =      8
   non local maximal  LDIM  =      4   non local SUM 2l+1 LMDIM =      8
   total plane-waves  NPLWV =  10976
   max r-space proj   IRMAX =      1   max aug-charges    IRDMAX=   1115
   dimension x,y,z NGX =    28 NGY =   28 NGZ =   14
   dimension x,y,z NGXF=    40 NGYF=   40 NGZF=   20
   support grid    NGXF=    40 NGYF=   40 NGZF=   20
   ions per type =               8
 NGX,Y,Z   is equivalent  to a cutoff of   9.46,  9.46,  9.46 a.u.
 NGXF,Y,Z  is equivalent  to a cutoff of  13.52, 13.52, 13.52 a.u.


 I would recommend the setting:
   dimension x,y,z NGX =    27 NGY =   27 NGZ =   13
 SYSTEM =  NAME                                    
 POSCAR =  graphite                                

 Startparameter for this run:
   NWRITE =      2    write-flag & timer
   PREC   = medium    normal or accurate (medium, high low for compatibility)
   ISTART =      0    job   : 0-new  1-cont  2-samecut
   ICHARG =      2    charge: 1-file 2-atom 10-const
   ISPIN  =      1    spin polarized calculation?
   LNONCOLLINEAR =      F non collinear calculations
   LSORBIT =      F    spin-orbit coupling
   INIWAV =      1    electr: 0-lowe 1-rand  2-diag
   LASPH  =      F    aspherical Exc in radial PAW
   METAGGA=      F    non-selfconsistent MetaGGA calc.

 Electronic Relaxation 1
   ENCUT  =  500.0 eV  36.75 Ry    6.06 a.u.   8.97  8.97  4.49*2*pi/ulx,y,z
   ENINI  =  500.0     initial cutoff
   ENAUG  =  644.9 eV  augmentation charge cutoff
   NELM   =    100;   NELMIN=  5; NELMDL= -5     # of ELM steps 
   EDIFF  = 0.1E-03   stopping-criterion for ELM
   LREAL  =      F    real-space projection
   LCOMPAT=      F    compatible to vasp.4.4
   GGA_COMPAT  = T    GGA compatible to vasp.4.4-vasp.4.6
   LMAXPAW     = -100 max onsite density
   LMAXMIX     =    2 max onsite mixed and CHGCAR
   VOSKOWN=      0    Vosko Wilk Nusair interpolation
   ROPT   =    0.00000
 Ionic relaxation
   EDIFFG = -.1E-01   stopping-criterion for IOM
   NSW    =    500    number of steps for IOM
   NBLOCK =      1;   KBLOCK =    500    inner block; outer block 
   IBRION =      2    ionic relax: 0-MD 1-quasi-New 2-CG
   NFREE  =      1    steps in history (QN), initial steepest desc. (CG)
   ISIF   =      3    stress and relaxation
   IWAVPR =     11    prediction:  0-non 1-charg 2-wave 3-comb
   ISYM   =      2    0-nonsym 1-usesym 2-fastsym
   LCORR  =      T    Harris-Foulkes like correction to forces

   POTIM  = 0.5000    time-step for ionic-motion
   TEIN   =    0.0    initial temperature
   TEBEG  =    0.0;   TEEND  =   0.0 temperature during run
   SMASS  =  -3.00    Nose mass-parameter (am)
   estimated Nose-frequenzy (Omega)   =  0.10E-29 period in steps =****** mass=  -0.553E-27a.u.
   NPACO  =    256;   APACO  = 16.0  distance and # of slots for P.C.
   PSTRESS=    0.0 pullay stress

  Mass of Ions in am
   POMASS =  12.01
  Ionic Valenz
   ZVAL   =   4.00
  Atomic Wigner-Seitz radii
   RWIGS  =  -1.00
  virtual crystal weights 
   VCA    =   1.00
   NELECT =      32.0000    total number of electrons
   NUPDOWN=      -1.0000    fix difference up-down

 DOS related values:
   EMIN   =  10.00;   EMAX   =-10.00  energy-range for DOS
   EFERMI =   0.00
   ISMEAR =    -5;   SIGMA  =   0.10  broadening in eV -4-tet -1-fermi 0-gaus

 Electronic relaxation 2 (details)
   IALGO  =     38    algorithm
   LDIAG  =      T    sub-space diagonalisation (order eigenvalues)
   LSUBROT=      T    optimize rotation matrix (better conditioning)
   TURBO    =      0    0=normal 1=particle mesh
   IRESTART =      0    0=no restart 2=restart with 2 vectors
   NREBOOT  =      0    no. of reboots
   NMIN     =      0    reboot dimension
   EREF     =   0.00    reference energy to select bands
   IMIX   =      4    mixing-type and parameters
     AMIX     =   0.40;   BMIX     =  1.00
     AMIX_MAG =   1.60;   BMIX_MAG =  1.00
     AMIN     =   0.10
     WC   =   100.;   INIMIX=   1;  MIXPRE=   1

 Intra band minimization:
   WEIMIN = 0.0010     energy-eigenvalue tresh-hold
   EBREAK =  0.12E-05  absolut break condition
   DEPER  =   0.30     relativ break condition  

   TIME   =   0.40     timestep for ELM

  volume/ion in A,a.u.               =       6.45        43.50
  Fermi-wavevector in a.u.,A,eV,Ry     =   1.396345  2.638710 26.528371  1.949780
  Thomas-Fermi vector in A             =   2.519709
 
 Write flags
   LWAVE  =      T    write WAVECAR
   LCHARG =      T    write CHGCAR
   LVTOT  =      F    write LOCPOT, total local potential
   LVHAR  =      F    write LOCPOT, Hartree potential only
   LELF   =      F    write electronic localiz. function (ELF)
   LORBIT =      0    0 simple, 1 ext, 2 COOP (PROOUT)


 Dipole corrections
   LMONO  =      F    monopole corrections only (constant potential shift)
   LDIPOL =      F    correct potential (dipole corrections)
   IDIPOL =      0    1-x, 2-y, 3-z, 4-all directions 
   EPSILON=  1.0000000 bulk dielectric constant

 Exchange correlation treatment:
   GGA     =    --    GGA type
   LEXCH   =     8    internal setting for exchange type
   VOSKOWN=      0    Vosko Wilk Nusair interpolation
   LHFCALC =     F    Hartree Fock is set to
   LHFONE  =     F    Hartree Fock one center treatment
   AEXX    =    0.0000 exact exchange contribution

 Linear response parameters
   LEPSILON=     F    determine dielectric tensor
   LRPA    =     F    only Hartree local field effects (RPA)
   LNABLA  =     F    use nabla operator in PAW spheres
   LVEL    =     F    velocity operator in full k-point grid
   LINTERFAST=   F  fast interpolation
   KINTER  =     0    interpolate to denser k-point grid
   CSHIFT  =0.1000    complex shift for real part using Kramers Kronig
   OMEGAMAX=  -1.0    maximum frequency
   RTIME   =    0.100 relaxation time in fs

 Orbital magnetization related:
   ORBITALMAG=     F  switch on orbital magnetization
   LCHIMAG   =     F  perturbation theory with respect to B field



--------------------------------------------------------------------------------------------------------


 conjugate gradient relaxation of ions
 charge density and potential will be updated during run
 non-spin polarized calculation
 Variant of blocked Davidson
 Davidson routine will perform the subspace rotation
 perform sub-space diagonalisation
    after iterative eigenvector-optimisation
 modified Broyden-mixing scheme, WC =      100.0
 initial mixing is a Kerker type mixing with AMIX =  0.4000 and BMIX =      1.0000
 Hartree-type preconditioning will be used
 using additional bands            8
 reciprocal scheme for non local part
 calculate Harris-corrections to forces 
   (improved forces if not selfconsistent)
 use gradient corrections 
 use of overlap-Matrix (Vanderbilt PP)
 Fermi weights with tetrahedron method with Bloechl corrections


--------------------------------------------------------------------------------------------------------


  energy-cutoff  :      500.00
  volume of cell :       51.57
      direct lattice vectors                 reciprocal lattice vectors
     4.920000076  0.000000000  0.000000000     0.203252029  0.117347614  0.000000000
    -2.460000038  4.260845053  0.000000000     0.000000000  0.234695228  0.000000000
     0.000000000  0.000000000  2.460000038     0.000000000  0.000000000  0.406504059

  length of vectors
     4.920000076  4.920000076  2.460000038     0.234695228  0.234695228  0.406504059


 
 k-points in units of 2pi/SCALE and weight: Automatic mesh                          
   0.00000000  0.00000000  0.00000000       0.016
   0.02540650  0.01466845  0.00000000       0.062
   0.05081301  0.02933690  0.00000000       0.062
   0.07621951  0.04400536  0.00000000       0.062
   0.10162601  0.05867381  0.00000000       0.031
   0.02540650  0.04400536  0.00000000       0.031
   0.05081301  0.05867381  0.00000000       0.062
   0.07621951  0.07334226  0.00000000       0.062
   0.10162601  0.08801071  0.00000000       0.062
  -0.07621951 -0.01466845  0.00000000       0.062
  -0.05081301  0.00000000  0.00000000       0.062
  -0.02540650  0.01466845  0.00000000       0.031
   0.05081301  0.08801071  0.00000000       0.031
   0.07621951  0.10267916  0.00000000       0.062
   0.10162601  0.11734761  0.00000000       0.062
  -0.07621951  0.01466845  0.00000000       0.062
  -0.05081301  0.02933690  0.00000000       0.031
   0.07621951  0.13201607  0.00000000       0.031
   0.10162601  0.14668452  0.00000000       0.062
  -0.07621951  0.04400536  0.00000000       0.031
   0.10162601  0.17602142  0.00000000       0.016
 
 k-points in reciprocal lattice and weights: Automatic mesh                          
   0.00000000  0.00000000  0.00000000       0.016
   0.12500000  0.00000000  0.00000000       0.062
   0.25000000  0.00000000  0.00000000       0.062
   0.37500000  0.00000000  0.00000000       0.062
   0.50000000  0.00000000  0.00000000       0.031
   0.12500000  0.12500000  0.00000000       0.031
   0.25000000  0.12500000  0.00000000       0.062
   0.37500000  0.12500000  0.00000000       0.062
   0.50000000  0.12500000  0.00000000       0.062
  -0.37500000  0.12500000  0.00000000       0.062
  -0.25000000  0.12500000  0.00000000       0.062
  -0.12500000  0.12500000  0.00000000       0.031
   0.25000000  0.25000000  0.00000000       0.031
   0.37500000  0.25000000  0.00000000       0.062
   0.50000000  0.25000000  0.00000000       0.062
  -0.37500000  0.25000000  0.00000000       0.062
  -0.25000000  0.25000000  0.00000000       0.031
   0.37500000  0.37500000  0.00000000       0.031
   0.50000000  0.37500000  0.00000000       0.062
  -0.37500000  0.37500000  0.00000000       0.031
   0.50000000  0.50000000  0.00000000       0.016
 
 position of ions in fractional coordinates (direct lattice) 
   0.00000000  0.00000000  0.07317000
   0.33333001  0.16666999  0.07317000
   0.50000000  0.00000000  0.07317000
   0.83332998  0.16666999  0.07317000
   0.00000000  0.50000000  0.07317000
   0.33333001  0.66667002  0.07317000
   0.50000000  0.50000000  0.07317000
   0.83332998  0.66667002  0.07317000
 
 position of ions in cartesian coordinates  (Angst):
   0.00000000  0.00000000  0.17999820
   1.22997546  0.71015502  0.17999820
   2.46000004  0.00000000  0.17999820
   3.68997535  0.71015502  0.17999820
  -1.23000002  2.13042253  0.17999820
  -0.00002463  2.84057767  0.17999820
   1.23000002  2.13042253  0.17999820
   2.45997526  2.84057767  0.17999820
 


--------------------------------------------------------------------------------------------------------


 k-point  1 :  0.00000.00000.0000  plane waves:    1299
 k-point  2 :  0.12500.00000.0000  plane waves:    1301
 k-point  3 :  0.25000.00000.0000  plane waves:    1306
 k-point  4 :  0.37500.00000.0000  plane waves:    1312
 k-point  5 :  0.50000.00000.0000  plane waves:    1348
 k-point  6 :  0.12500.12500.0000  plane waves:    1307
 k-point  7 :  0.25000.12500.0000  plane waves:    1320
 k-point  8 :  0.37500.12500.0000  plane waves:    1325
 k-point  9 :  0.50000.12500.0000  plane waves:    1325
 k-point 10 :  -.37500.12500.0000  plane waves:    1320
 k-point 11 :  -.25000.12500.0000  plane waves:    1307
 k-point 12 :  -.12500.12500.0000  plane waves:    1301
 k-point 13 :  0.25000.25000.0000  plane waves:    1315
 k-point 14 :  0.37500.25000.0000  plane waves:    1331
 k-point 15 :  0.50000.25000.0000  plane waves:    1315
 k-point 16 :  -.37500.25000.0000  plane waves:    1320
 k-point 17 :  -.25000.25000.0000  plane waves:    1306
 k-point 18 :  0.37500.37500.0000  plane waves:    1331
 k-point 19 :  0.50000.37500.0000  plane waves:    1325
 k-point 20 :  -.37500.37500.0000  plane waves:    1312
 k-point 21 :  0.50000.50000.0000  plane waves:    1348

 maximum and minimum number of plane-waves per node :      1348     1299

 maximum number of plane-waves:      1348
 maximum index in each direction: 
   IXMAX=    9   IYMAX=    8   IZMAX=    4
   IXMIN=   -9   IYMIN=   -9   IZMIN=   -4

 WARNING: aliasing errors must be expected set NGX to  38 to avoid them
 WARNING: aliasing errors must be expected set NGY to  36 to avoid them
 WARNING: aliasing errors must be expected set NGZ to  18 to avoid them
 aliasing errors are usually negligible using standard VASP settings
 and one can safely disregard these warnings

 serial   3D FFT for wavefunctions
 parallel 3D FFT for charge:
    minimum data exchange during FFTs selected (reduces bandwidth)


 total amount of memory used by VASP on root node    33766. kBytes
========================================================================

   base      :      30000. kBytes
   nonl-proj :       1996. kBytes
   fftplans  :        172. kBytes
   grid      :        615. kBytes
   one-center:         24. kBytes
   wavefun   :        959. kBytes
 
 Broyden mixing: mesh for mixing (old mesh)
   NGX = 17   NGY = 17   NGZ =  9
  (NGX  = 40   NGY  = 40   NGZ  = 20)
  gives a total of   2601 points

 initial charge density was supplied:
 charge density of overlapping atoms calculated
 number of electron      32.0000000 magnetization 
 keeping initial charge density in first step


--------------------------------------------------------------------------------------------------------


 Maximum index for augmentation-charges          165 (set IRDMAX)


--------------------------------------------------------------------------------------------------------


 First call to EWALD:  gamma=   0.476
 Maximum number of real-space cells 2x 2x 4
 Maximum number of reciprocal cells 3x 3x 2

    FEWALD:  cpu time    0.00: real time    0.00


----------------------------------------- Iteration    1(   1)  ---------------------------------------


    POTLOK:  cpu time    0.00: real time    0.00
    SETDIJ:  cpu time    0.00: real time    0.00
     EDDAV:  cpu time    0.52: real time    0.52
 BZINTS: Fermi energy: 19.369275; 32.000000 electrons
         Band energy:  84.521314;  BLOECHL correction: -0.167804
       DOS:  cpu time    0.00: real time    0.00
    --------------------------------------------
      LOOP:  cpu time    0.53: real time    0.54

 eigenvalue-minimisations  :  1008
 total energy-change (2. order) : 0.9697181E+02  (-0.1703675E+04)
 number of electron      32.0000000 magnetization 
 augmentation part       32.0000000 magnetization 

 Free energy of the ion-electron system (eV)
  ---------------------------------------------------
  alpha Z        PSCENC =       101.11973060
  Ewald energy   TEWEN  =     -1248.61899323
  -1/2 Hartree   DENC   =      -121.24107551
  -exchange  EXHF       =         0.00000000
  -V(xc)+E(xc)   XCENC  =       113.20729372
  PAW double counting   =       302.65154477     -311.85538214
  entropy T*S    EENTRO =         0.00000000
  eigenvalues    EBANDS =        84.52131383
  atomic energy  EATOM  =      1177.18737338
  ---------------------------------------------------
  free energy    TOTEN  =        96.97180543 eV

  energy without entropy =       96.97180543  energy(sigma->0) =       96.97180543


--------------------------------------------------------------------------------------------------------


 E-fermi :  19.3693     XC(G=0): -12.8513     alpha+bet :-15.5734


 k-point   1 :       0.0000    0.0000    0.0000
  band No.  band energies     occupation 
      1     -13.1793      2.00000
      2      -7.4336      2.00000
      3      -6.8012      2.00000
      4      -5.7455      2.00000
      5      -5.1302      2.00000
      6      -4.7639      2.00000
      7      -4.3384      2.00000
      8       3.0381      2.00000
      9       4.1969      2.00000
     10       5.8818      2.00000
     11       8.7845      2.00000
     12      12.2623      2.00000
     13      13.5563      2.00000
     14      14.8351      2.00000
     15      16.0288      2.00000
     16      17.8503      2.00000
     17      18.8587      2.21530
     18      20.7474      0.00000
     19      21.9219      0.00000
     20      23.8246      0.00000
     21      26.3613      0.00000
     22      27.6817      0.00000
     23      30.1694      0.00000
     24      33.3390      0.00000

 k-point   2 :       0.1250    0.0000    0.0000
  band No.  band energies     occupation 
      1     -12.8284      2.00000
      2      -7.7821      2.00000
      3      -7.3197      2.00000
      4      -6.3425      2.00000
      5      -5.2935      2.00000
      6      -4.8408      2.00000
      7      -4.1957      2.00000
      8       3.0710      2.00000
      9       4.4686      2.00000
     10       6.8871      2.00000
     11       8.2098      2.00000
     12       9.2758      2.00000
     13      12.1518      2.00000
     14      15.3080      2.00000
     15      16.8620      2.00000
     16      17.8776      2.00000
     17      19.6011      0.28075
     18      21.1972      0.00000
     19      22.9826      0.00000
     20      24.9488      0.00000
     21      25.8937      0.00000
     22      28.0361      0.00000
     23      29.0943      0.00000
     24      32.7018      0.00000

 k-point   3 :       0.2500    0.0000    0.0000
  band No.  band energies     occupation 
      1     -12.6591      2.00000
      2      -9.3532      2.00000
      3      -7.6641      2.00000
      4      -7.2279      2.00000
      5      -3.5305      2.00000
      6      -2.8811      2.00000
      7      -2.5213      2.00000
      8       2.2130      2.00000
      9       3.0459      2.00000
     10       5.8920      2.00000
     11       6.4685      2.00000
     12       9.1124      2.00000
     13      12.1928      2.00000
     14      13.6967      2.00000
     15      15.4359      2.00000
     16      17.8023      2.00000
     17      20.7680     -0.23511
     18      22.1528      0.00000
     19      23.8244      0.00000
     20      24.7945      0.00000
     21      26.6877      0.00000
     22      28.7451      0.00000
     23      30.5869      0.00000
     24      34.7945      0.00000

 k-point   4 :       0.3750    0.0000    0.0000
  band No.  band energies     occupation 
      1     -12.1317      2.00000
      2      -9.7550      2.00000
      3      -8.2858      2.00000
      4      -7.9828      2.00000
      5      -3.2488      2.00000
      6      -3.0249      2.00000
      7      -0.2375      2.00000
      8       0.6113      2.00000
      9       1.5250      2.00000
     10       4.9066      2.00000
     11       7.0274      2.00000
     12       8.3970      2.00000
     13      10.2306      2.00000
     14      14.2474      2.00000
     15      16.8892      2.00000
     16      18.4302      2.00000
     17      20.6485     -0.10208
     18      22.2792      0.00000
     19      23.7752      0.00000
     20      24.8377      0.00000
     21      26.6315      0.00000
     22      27.7336      0.00000
     23      30.1388      0.00000
     24      33.4417      0.00000

 k-point   5 :       0.5000    0.0000    0.0000
  band No.  band energies     occupation 
      1     -11.4991      2.00000
      2     -10.5360      2.00000
      3      -8.0283      2.00000
      4      -6.8169      2.00000
      5      -1.9652      2.00000
      6      -1.3252      2.00000
      7      -0.0658      2.00000
      8       0.8951      2.00000
      9       3.2685      2.00000
     10       4.7292      2.00000
     11       8.4593      2.00000
     12      10.9162      2.00000
     13      13.5891      2.00000
     14      14.0272      2.00000
     15      16.4117      2.00000
     16      17.4719      2.00000
     17      19.4629      0.11848
     18      21.5986      0.00000
     19      23.3325      0.00000
     20      25.7305      0.00000
     21      26.2955      0.00000
     22      28.4891      0.00000
     23      30.5805      0.00000
     24      33.0682      0.00000

 k-point   6 :       0.1250    0.1250    0.0000
  band No.  band energies     occupation 
      1     -12.9110      2.00000
      2      -8.7846      2.00000
      3      -7.9469      2.00000
      4      -6.4915      2.00000
      5      -5.1046      2.00000
      6      -3.6896      2.00000
      7      -2.1887      2.00000
      8       3.1601      2.00000
      9       4.9585      2.00000
     10       6.2238      2.00000
     11       8.6760      2.00000
     12      10.3764      2.00000
     13      12.4832      2.00000
     14      14.7977      2.00000
     15      15.9774      2.00000
     16      18.0131      2.00000
     17      19.2016      0.99515
     18      20.2820      0.00000
     19      22.6465      0.00000
     20      23.7322      0.00000
     21      26.5108      0.00000
     22      28.3162      0.00000
     23      28.8553      0.00000
     24      35.2626      0.00000

 k-point   7 :       0.2500    0.1250    0.0000
  band No.  band energies     occupation 
      1     -12.5655      2.00000
      2      -9.1209      2.00000
      3      -8.4317      2.00000
      4      -6.5134      2.00000
      5      -4.4228      2.00000
      6      -2.8775      2.00000
      7      -1.2332      2.00000
      8       0.2121      2.00000
      9       2.5852      2.00000
     10       5.6671      2.00000
     11       6.6989      2.00000
     12       8.6995      2.00000
     13      10.8691      2.00000
     14      12.0565      2.00000
     15      13.7265      2.00000
     16      17.0321      2.00000
     17      19.4409      0.10560
     18      21.2119      0.00000
     19      22.8818      0.00000
     20      24.1520      0.00000
     21      25.5010      0.00000
     22      26.4919      0.00000
     23      28.8288      0.00000
     24      33.6114      0.00000

 k-point   8 :       0.3750    0.1250    0.0000
  band No.  band energies     occupation 
      1     -11.8117      2.00000
      2     -10.4900      2.00000
      3      -8.8514      2.00000
      4      -6.7910      2.00000
      5      -3.4085      2.00000
      6      -1.3389      2.00000
      7      -0.7302      2.00000
      8       1.1131      2.00000
      9       2.6091      2.00000
     10       5.5932      2.00000
     11       7.6260      2.00000
     12       8.3476      2.00000
     13      10.3604      2.00000
     14      11.9549      2.00000
     15      15.3385      2.00000
     16      18.8924      2.00416
     17      20.9958     -0.08353
     18      22.7997      0.00000
     19      24.0505      0.00000
     20      24.6267      0.00000
     21      26.9476      0.00000
     22      28.3601      0.00000
     23      31.4407      0.00000
     24      34.3164      0.00000

 k-point   9 :       0.5000    0.1250    0.0000
  band No.  band energies     occupation 
      1     -11.5491      2.00000
      2     -10.8663      2.00000
      3      -9.1767      2.00000
      4      -6.0353      2.00000
      5      -3.1574      2.00000
      6      -1.4016      2.00000
      7      -0.8887      2.00000
      8       0.6623      2.00000
      9       1.8962      2.00000
     10       3.5672      2.00000
     11       5.5157      2.00000
     12       9.0743      2.00000
     13      11.6952      2.00000
     14      14.2198      2.00000
     15      16.5007      2.00000
     16      18.7554      2.05702
     17      19.2638      0.37118
     18      21.9211      0.00000
     19      24.6111      0.00000
     20      25.1284      0.00000
     21      26.6611      0.00000
     22      29.2608      0.00000
     23      29.9653      0.00000
     24      31.7084      0.00000

 k-point  10 :      -0.3750    0.1250    0.0000
  band No.  band energies     occupation 
      1     -12.4864      2.00000
      2      -9.5713      2.00000
      3      -8.5581      2.00000
      4      -6.0556      2.00000
      5      -3.9163      2.00000
      6      -2.0024      2.00000
      7      -0.2831      2.00000
      8       2.0166      2.00000
      9       3.6474      2.00000
     10       7.1078      2.00000
     11       8.4584      2.00000
     12      10.9037      2.00000
     13      12.3649      2.00000
     14      13.5714      2.00000
     15      16.8042      2.00000
     16      18.6178      1.99780
     17      19.7584     -0.01668
     18      21.4902      0.00000
     19      23.5256      0.00000
     20      25.1538      0.00000
     21      26.6053      0.00000
     22      28.6896      0.00000
     23      31.4209      0.00000
     24      33.3441      0.00000

 k-point  11 :      -0.2500    0.1250    0.0000
  band No.  band energies     occupation 
      1     -12.8475      2.00000
      2      -8.7620      2.00000
      3      -7.9722      2.00000
      4      -6.5450      2.00000
      5      -5.0528      2.00000
      6      -3.3946      2.00000
      7      -1.7286      2.00000
      8       3.0694      2.00000
      9       4.3777      2.00000
     10       5.4957      2.00000
     11       6.2469      2.00000
     12       9.1522      2.00000
     13      12.6540      2.00000
     14      13.8010      2.00000
     15      16.3696      2.00000
     16      18.1357      2.03704
     17      19.2354      0.83497
     18      20.6118      0.00000
     19      22.3225      0.00000
     20      24.9020      0.00000
     21      26.8667      0.00000
     22      27.8854      0.00000
     23      32.1764      0.00000
     24      35.0912      0.00000

 k-point  12 :      -0.1250    0.1250    0.0000
  band No.  band energies     occupation 
      1     -12.9729      2.00000
      2      -7.6584      2.00000
      3      -7.1830      2.00000
      4      -6.8378      2.00000
      5      -5.1045      2.00000
      6      -4.4970      2.00000
      7      -3.5237      2.00000
      8       2.2187      2.00000
      9       5.0031      2.00000
     10       6.9450      2.00000
     11       9.6675      2.00000
     12      11.6966      2.00000
     13      14.2872      2.00000
     14      15.0218      2.00000
     15      15.5481      2.00000
     16      17.6031      2.00000
     17      19.0922      2.08969
     18      20.4336      0.00000
     19      22.4358      0.00000
     20      24.7534      0.00000
     21      28.6340      0.00000
     22      30.0346      0.00000
     23      31.3499      0.00000
     24      33.6858      0.00000

 k-point  13 :       0.2500    0.2500    0.0000
  band No.  band energies     occupation 
      1     -12.0382      2.00000
      2     -10.3155      2.00000
      3      -9.5608      2.00000
      4      -5.4937      2.00000
      5      -4.2775      2.00000
      6      -1.3110      2.00000
      7      -0.5182      2.00000
      8       0.4255      2.00000
      9       2.5964      2.00000
     10       3.7988      2.00000
     11       4.7866      2.00000
     12      10.6123      2.00000
     13      11.9384      2.00000
     14      13.0397      2.00000
     15      16.3075      2.00000
     16      16.6565      2.21877
     17      20.1620      0.00000
     18      20.7406      0.00000
     19      23.4462      0.00000
     20      24.1909      0.00000
     21      27.2800      0.00000
     22      28.3009      0.00000
     23      30.9587      0.00000
     24      34.2461      0.00000

 k-point  14 :       0.3750    0.2500    0.0000
  band No.  band energies     occupation 
      1     -11.0269      2.00000
      2     -10.8724      2.00000
      3      -9.9630      2.00000
      4      -5.4169      2.00000
      5      -3.6246      2.00000
      6      -1.6859      2.00000
      7       0.5511      2.00000
      8       2.0937      2.00000
      9       2.7124      2.00000
     10       4.2701      2.00000
     11       5.8135      2.00000
     12       8.7104      2.00000
     13      11.0065      2.00000
     14      12.9082      2.00000
     15      16.3873      2.00000
     16      19.5680      0.95047
     17      20.6879     -0.04289
     18      21.5949      0.00000
     19      23.7197      0.00000
     20      24.8476      0.00000
     21      25.6130      0.00000
     22      29.0441      0.00000
     23      32.8406      0.00000
     24      34.8741      0.00000

 k-point  15 :       0.5000    0.2500    0.0000
  band No.  band energies     occupation 
      1     -11.7126      2.00000
      2     -10.0568      2.00000
      3      -8.4850      2.00000
      4      -5.3837      2.00000
      5      -4.2291      2.00000
      6      -1.0368      2.00000
      7      -0.0345      2.00000
      8       1.4498      2.00000
      9       3.6739      2.00000
     10       4.4890      2.00000
     11       5.6751      2.00000
     12       7.7684      2.00000
     13      10.5677      2.00000
     14      14.2559      2.00000
     15      15.6472      2.00000
     16      19.0086      1.79889
     17      19.6398     -0.00358
     18      21.3620      0.00000
     19      23.3657      0.00000
     20      26.4914      0.00000
     21      27.5707      0.00000
     22      28.6983      0.00000
     23      31.3337      0.00000
     24      32.8238      0.00000

 k-point  16 :      -0.3750    0.2500    0.0000
  band No.  band energies     occupation 
      1     -12.4420      2.00000
      2      -9.3870      2.00000
      3      -7.8491      2.00000
      4      -6.6927      2.00000
      5      -3.2872      2.00000
      6      -1.8978      2.00000
      7      -0.8406      2.00000
      8       1.4576      2.00000
      9       3.5746      2.00000
     10       4.8939      2.00000
     11       8.2988      2.00000
     12       8.8006      2.00000
     13      10.5886      2.00000
     14      14.7375      2.00000
     15      15.8641      2.00000
     16      20.1986      0.48842
     17      20.9737     -0.08484
     18      21.4863      0.00000
     19      23.8477      0.00000
     20      24.9892      0.00000
     21      26.3176      0.00000
     22      29.4015      0.00000
     23      31.6771      0.00000
     24      34.0577      0.00000

 k-point  17 :      -0.2500    0.2500    0.0000
  band No.  band energies     occupation 
      1     -12.5613      2.00000
      2      -9.0898      2.00000
      3      -7.9158      2.00000
      4      -6.6930      2.00000
      5      -4.2425      2.00000
      6      -2.2758      2.00000
      7       0.0658      2.00000
      8       2.2945      2.00000
      9       3.9205      2.00000
     10       6.2307      2.00000
     11       8.0445      2.00000
     12       9.5445      2.00000
     13      14.0984      2.00000
     14      14.9204      2.00000
     15      16.4508      2.00000
     16      17.9139      2.13037
     17      19.5961      0.14621
     18      20.6252      0.00000
     19      22.5647      0.00000
     20      24.6328      0.00000
     21      26.4069      0.00000
     22      28.4803      0.00000
     23      30.1262      0.00000
     24      34.4010      0.00000

 k-point  18 :       0.3750    0.3750    0.0000
  band No.  band energies     occupation 
      1     -11.0028      2.00000
      2     -10.5732      2.00000
      3      -9.4786      2.00000
      4      -5.5479      2.00000
      5      -4.0201      2.00000
      6      -1.2781      2.00000
      7       0.1753      2.00000
      8       1.2431      2.00000
      9       2.3480      2.00000
     10       3.3981      2.00000
     11       4.4009      2.00000
     12       7.2089      2.00000
     13       9.8370      2.00000
     14      12.7058      2.00000
     15      16.2461      2.00000
     16      19.8992      0.34700
     17      20.9778      0.00000
     18      22.8395      0.00000
     19      23.3300      0.00000
     20      24.9512      0.00000
     21      26.3861      0.00000
     22      28.0309      0.00000
     23      30.7545      0.00000
     24      33.4079      0.00000

 k-point  19 :       0.5000    0.3750    0.0000
  band No.  band energies     occupation 
      1     -11.5072      2.00000
      2     -10.9802      2.00000
      3      -8.8025      2.00000
      4      -5.0977      2.00000
      5      -3.6929      2.00000
      6      -0.9489      2.00000
      7      -0.3122      2.00000
      8       1.2577      2.00000
      9       2.3371      2.00000
     10       3.4895      2.00000
     11       6.3178      2.00000
     12       8.4874      2.00000
     13      11.5074      2.00000
     14      13.6899      2.00000
     15      15.6998      2.00000
     16      18.2927      2.12793
     17      19.5843      0.00000
     18      21.2825      0.00000
     19      22.4652      0.00000
     20      23.3152      0.00000
     21      27.1425      0.00000
     22      28.4926      0.00000
     23      32.3972      0.00000
     24      34.8442      0.00000

 k-point  20 :      -0.3750    0.3750    0.0000
  band No.  band energies     occupation 
      1     -12.1607      2.00000
      2     -10.2965      2.00000
      3      -7.4700      2.00000
      4      -6.8801      2.00000
      5      -3.5914      2.00000
      6      -1.9037      2.00000
      7       0.0561      2.00000
      8       1.2516      2.00000
      9       2.7201      2.00000
     10       5.7666      2.00000
     11       6.2114      2.00000
     12      10.9438      2.00000
     13      13.6683      2.00000
     14      15.3084      2.00000
     15      15.7458      2.00000
     16      18.8540      1.87562
     17      20.2911      0.00000
     18      21.0242      0.00000
     19      23.6572      0.00000
     20      24.5487      0.00000
     21      25.5895      0.00000
     22      28.9210      0.00000
     23      29.8938      0.00000
     24      33.8079      0.00000

 k-point  21 :       0.5000    0.5000    0.0000
  band No.  band energies     occupation 
      1     -11.2061      2.00000
      2     -10.8873      2.00000
      3      -8.3563      2.00000
      4      -7.3040      2.00000
      5      -2.2803      2.00000
      6      -1.6616      2.00000
      7      -0.2843      2.00000
      8       0.1483      2.00000
      9       1.8439      2.00000
     10       5.7664      2.00000
     11       8.7844      2.00000
     12      10.0389      2.00000
     13      12.1382      2.00000
     14      15.3274      2.00000
     15      16.1677      2.00000
     16      17.8071      2.00000
     17      20.5372      0.00000
     18      21.5877      0.00000
     19      23.1298      0.00000
     20      25.1755      0.00000
     21      25.9053      0.00000
     22      27.2064      0.00000
     23      27.9116      0.00000
     24      30.3172      0.00000


----------------------------------------- Iteration    1(   2)  ---------------------------------------


     EDDAV:  cpu time    0.67: real time    0.67
 BZINTS: Fermi energy: 10.055580; 32.000000 electrons
         Band energy: -68.245698;  BLOECHL correction:  0.000000
       DOS:  cpu time    0.00: real time    0.00
    --------------------------------------------
      LOOP:  cpu time    0.67: real time    0.68

 eigenvalue-minimisations  :  1320
 total energy-change (2. order) :-0.1527670E+03  (-0.1506330E+03)
 number of electron      32.0000000 magnetization 
 augmentation part       32.0000000 magnetization 

 Free energy of the ion-electron system (eV)
  ---------------------------------------------------
  alpha Z        PSCENC =       101.11973060
  Ewald energy   TEWEN  =     -1248.61899323
  -1/2 Hartree   DENC   =      -121.24107551
  -exchange  EXHF       =         0.00000000
  -V(xc)+E(xc)   XCENC  =       113.20729372
  PAW double counting   =       302.65154477     -311.85538214
  entropy T*S    EENTRO =         0.00000000
  eigenvalues    EBANDS =       -68.24569813
  atomic energy  EATOM  =      1177.18737338
  ---------------------------------------------------
  free energy    TOTEN  =       -55.79520653 eV

  energy without entropy =      -55.79520653  energy(sigma->0) =      -55.79520653


--------------------------------------------------------------------------------------------------------


 E-fermi :  10.0556     XC(G=0): -12.8513     alpha+bet :-15.5734


 k-point   1 :       0.0000    0.0000    0.0000
  band No.  band energies     occupation 
      1     -13.9998      2.00000
      2      -8.7876      2.00000
      3      -8.7599      2.00000
      4      -8.7519      2.00000
      5      -7.5521      2.00000
      6      -7.5302      2.00000
      7      -7.4996      2.00000
      8      -0.6760      2.00000
      9      -0.5518      2.00000
     10      -0.4673      2.00000
     11       2.7449      2.00000
     12       3.0417      2.00000
     13       3.9805      2.00000
     14       8.1805      2.00000
     15       8.2795      2.00000
     16       8.5332      2.00000
     17      12.4249      0.00000
     18      12.5887      0.00000
     19      13.0949      0.00000
     20      13.3237      0.00000
     21      13.6608      0.00000
     22      14.9258      0.00000
     23      17.2661      0.00000
     24      17.7511      0.00000

 k-point   2 :       0.1250    0.0000    0.0000
  band No.  band energies     occupation 
      1     -13.8992      2.00000
      2      -9.5897      2.00000
      3      -9.0204      2.00000
      4      -9.0060      2.00000
      5      -7.1678      2.00000
      6      -7.1600      2.00000
      7      -6.5512      2.00000
      8      -0.9083      2.00000
      9      -0.8366      2.00000
     10      -0.4355      2.00000
     11       2.3383      2.00000
     12       2.5491      2.00000
     13       3.8872      2.00000
     14       7.7460      2.00000
     15       8.0727      2.00000
     16       8.1615      2.00000
     17      12.3433      0.00000
     18      12.4634      0.00000
     19      12.9005      0.00000
     20      13.2432      0.00000
     21      13.5010      0.00000
     22      13.6776      0.00000
     23      14.7171      0.00000
     24      15.7386      0.00000

 k-point   3 :       0.2500    0.0000    0.0000
  band No.  band energies     occupation 
      1     -13.6176      2.00000
      2     -10.7204      2.00000
      3      -9.3571      2.00000
      4      -9.3381      2.00000
      5      -6.3589      2.00000
      6      -6.3361      2.00000
      7      -5.0574      2.00000
      8      -1.6267      2.00000
      9      -1.5642      2.00000
     10      -0.1738      2.00000
     11       1.4129      2.00000
     12       2.0289      2.00000
     13       4.1555      2.00000
     14       6.9187      2.00000
     15       7.9537      2.00000
     16       7.9885      2.00000
     17      12.6108      0.00000
     18      12.9520      0.00000
     19      13.6779      0.00000
     20      14.3506      0.00000
     21      14.6756      0.00000
     22      15.1255      0.00000
     23      15.8315      0.00000
     24      16.6074      0.00000

 k-point   4 :       0.3750    0.0000    0.0000
  band No.  band energies     occupation 
      1     -13.1611      2.00000
      2     -11.6837      2.00000
      3      -9.6113      2.00000
      4      -9.5984      2.00000
      5      -5.5009      2.00000
      6      -5.4757      2.00000
      7      -3.3968      2.00000
      8      -2.6153      2.00000
      9      -2.5039      2.00000
     10      -0.0220      2.00000
     11       0.2571      2.00000
     12       1.4178      2.00000
     13       4.6549      2.00000
     14       6.1900      2.00000
     15       7.9546      2.00000
     16       8.0211      2.00000
     17      13.0764      0.00000
     18      13.6663      0.00000
     19      14.1864      0.00000
     20      15.9853      0.00000
     21      17.3732      0.00000
     22      17.9041      0.00000
     23      18.2476      0.00000
     24      19.2958      0.00000

 k-point   5 :       0.5000    0.0000    0.0000
  band No.  band energies     occupation 
      1     -12.5209      2.00000
      2     -12.4978      2.00000
      3      -9.6837      2.00000
      4      -9.6493      2.00000
      5      -4.9244      2.00000
      6      -4.8724      2.00000
      7      -3.1425      2.00000
      8      -3.1012      2.00000
      9      -1.7412      2.00000
     10      -1.6672      2.00000
     11       0.7560      2.00000
     12       0.8654      2.00000
     13       5.3478      2.00000
     14       5.4636      2.00000
     15       7.9322      2.00000
     16       8.1926      2.00000
     17      13.0275      0.00000
     18      13.6553      0.00000
     19      14.3150      0.00000
     20      14.9667      0.00000
     21      17.3244      0.00000
     22      17.9865      0.00000
     23      18.7259      0.00000
     24      19.3149      0.00000

 k-point   6 :       0.1250    0.1250    0.0000
  band No.  band energies     occupation 
      1     -13.7243      2.00000
      2     -10.1219      2.00000
      3     -10.0969      2.00000
      4      -8.5144      2.00000
      5      -7.3178      2.00000
      6      -5.8028      2.00000
      7      -5.7307      2.00000
      8      -1.5808      2.00000
      9      -0.6788      2.00000
     10      -0.5221      2.00000
     11       1.7505      2.00000
     12       2.1029      2.00000
     13       4.0692      2.00000
     14       7.4420      2.00000
     15       7.4514      2.00000
     16       8.4406      2.00000
     17      12.2187      0.00000
     18      13.2440      0.00000
     19      13.5051      0.00000
     20      13.6772      0.00000
     21      13.8681      0.00000
     22      14.6167      0.00000
     23      15.1333      0.00000
     24      15.8493      0.00000

 k-point   7 :       0.2500    0.1250    0.0000
  band No.  band energies     occupation 
      1     -13.3600      2.00000
      2     -11.1344      2.00000
      3     -10.4615      2.00000
      4      -8.5230      2.00000
      5      -6.7525      2.00000
      6      -4.9303      2.00000
      7      -4.2053      2.00000
      8      -2.8167      2.00000
      9      -1.2790      2.00000
     10      -0.2841      2.00000
     11       0.5638      2.00000
     12       1.4618      2.00000
     13       4.5067      2.00000
     14       6.5612      2.00000
     15       7.1580      2.00000
     16       8.7662      2.00000
     17      12.3536      0.00000
     18      14.0803      0.00000
     19      14.7800      0.00000
     20      15.1061      0.00000
     21      16.1216      0.00000
     22      16.9468      0.00000
     23      17.7115      0.00000
     24      19.0332      0.00000

 k-point   8 :       0.3750    0.1250    0.0000
  band No.  band energies     occupation 
      1     -12.8006      2.00000
      2     -12.0534      2.00000
      3     -10.6317      2.00000
      4      -8.6185      2.00000
      5      -5.9729      2.00000
      6      -4.0497      2.00000
      7      -3.7233      2.00000
      8      -2.5513      2.00000
      9      -2.0412      2.00000
     10      -0.8444      2.00000
     11       0.2840      2.00000
     12       0.9286      2.00000
     13       5.0461      2.00000
     14       5.6980      2.00000
     15       7.2698      2.00000
     16       8.9778      2.00000
     17      11.9182      0.00000
     18      14.3120      0.00000
     19      14.9565      0.00000
     20      15.8132      0.00000
     21      16.6696      0.00000
     22      17.9060      0.00000
     23      18.5943      0.00000
     24      19.5385      0.00000

 k-point   9 :       0.5000    0.1250    0.0000
  band No.  band energies     occupation 
      1     -12.7839      2.00000
      2     -12.0717      2.00000
      3     -10.6255      2.00000
      4      -8.6009      2.00000
      5      -5.9151      2.00000
      6      -4.0417      2.00000
      7      -3.7606      2.00000
      8      -2.5370      2.00000
      9      -2.0957      2.00000
     10      -0.8592      2.00000
     11       0.1456      2.00000
     12       0.8263      2.00000
     13       5.0478      2.00000
     14       5.8661      2.00000
     15       7.2819      2.00000
     16       9.1707      2.00000
     17      12.2497      0.00000
     18      14.3390      0.00000
     19      14.8511      0.00000
     20      15.3660      0.00000
     21      16.8853      0.00000
     22      18.0425      0.00000
     23      18.7349      0.00000
     24      19.3115      0.00000

 k-point  10 :      -0.3750    0.1250    0.0000
  band No.  band energies     occupation 
      1     -13.3607      2.00000
      2     -11.1601      2.00000
      3     -10.4533      2.00000
      4      -8.5079      2.00000
      5      -6.7413      2.00000
      6      -4.8943      2.00000
      7      -4.1561      2.00000
      8      -2.7566      2.00000
      9      -1.3183      2.00000
     10      -0.2519      2.00000
     11       0.6275      2.00000
     12       1.5824      2.00000
     13       4.5318      2.00000
     14       6.6401      2.00000
     15       7.3796      2.00000
     16       8.8748      2.00000
     17      12.1472      0.00000
     18      14.1712      0.00000
     19      14.5626      0.00000
     20      14.7948      0.00000
     21      15.5389      0.00000
     22      16.5602      0.00000
     23      17.0471      0.00000
     24      18.3288      0.00000

 k-point  11 :      -0.2500    0.1250    0.0000
  band No.  band energies     occupation 
      1     -13.7247      2.00000
      2     -10.1152      2.00000
      3     -10.0853      2.00000
      4      -8.5330      2.00000
      5      -7.3252      2.00000
      6      -5.7981      2.00000
      7      -5.7072      2.00000
      8      -1.6494      2.00000
      9      -0.7382      2.00000
     10      -0.5452      2.00000
     11       1.7102      2.00000
     12       2.2490      2.00000
     13       4.1142      2.00000
     14       7.4301      2.00000
     15       7.6832      2.00000
     16       9.0541      2.00000
     17      12.3364      0.00000
     18      13.3608      0.00000
     19      13.9396      0.00000
     20      14.2938      0.00000
     21      14.8089      0.00000
     22      15.3191      0.00000
     23      16.2970      0.00000
     24      18.1918      0.00000

 k-point  12 :      -0.1250    0.1250    0.0000
  band No.  band energies     occupation 
      1     -13.8979      2.00000
      2      -9.5990      2.00000
      3      -9.0095      2.00000
      4      -8.9986      2.00000
      5      -7.1564      2.00000
      6      -7.1185      2.00000
      7      -6.5713      2.00000
      8      -0.9070      2.00000
      9      -0.6781      2.00000
     10      -0.4010      2.00000
     11       2.4685      2.00000
     12       2.6614      2.00000
     13       4.0096      2.00000
     14       7.7177      2.00000
     15       8.1265      2.00000
     16       8.2133      2.00000
     17      12.3608      0.00000
     18      12.5400      0.00000
     19      12.9778      0.00000
     20      13.2665      0.00000
     21      13.5762      0.00000
     22      13.8724      0.00000
     23      14.6353      0.00000
     24      15.2054      0.00000

 k-point  13 :       0.2500    0.2500    0.0000
  band No.  band energies     occupation 
      1     -12.8925      2.00000
      2     -11.4374      2.00000
      3     -11.4216      2.00000
      4      -7.7961      2.00000
      5      -6.8136      2.00000
      6      -3.9548      2.00000
      7      -3.3618      2.00000
      8      -3.2882      2.00000
      9      -0.9085      2.00000
     10      -0.8150      2.00000
     11      -0.4577      2.00000
     12       0.6481      2.00000
     13       5.0185      2.00000
     14       6.2964      2.00000
     15       6.4607      2.00000
     16       9.4292      2.00000
     17      11.3378      0.00000
     18      15.0957      0.00000
     19      15.3539      0.00000
     20      15.7729      0.00000
     21      16.4485      0.00000
     22      16.8045      0.00000
     23      17.9504      0.00000
     24      18.7222      0.00000

 k-point  14 :       0.3750    0.2500    0.0000
  band No.  band energies     occupation 
      1     -12.2377      2.00000
      2     -12.2248      2.00000
      3     -11.5264      2.00000
      4      -7.6069      2.00000
      5      -6.5574      2.00000
      6      -4.5531      2.00000
      7      -2.8206      2.00000
      8      -1.8606      2.00000
      9      -1.7314      2.00000
     10      -1.2421      2.00000
     11      -0.1488      2.00000
     12      -0.0384      2.00000
     13       5.5427      2.00000
     14       5.6013      2.00000
     15       6.2553      2.00000
     16       9.8319      2.00000
     17      11.7184      0.00000
     18      15.3118      0.00000
     19      15.5162      0.00000
     20      16.3571      0.00000
     21      17.1755      0.00000
     22      17.9007      0.00000
     23      18.1473      0.00000
     24      19.3814      0.00000

 k-point  15 :       0.5000    0.2500    0.0000
  band No.  band energies     occupation 
      1     -12.8793      2.00000
      2     -11.4253      2.00000
      3     -11.3930      2.00000
      4      -7.7863      2.00000
      5      -6.8092      2.00000
      6      -3.9398      2.00000
      7      -3.3340      2.00000
      8      -3.1929      2.00000
      9      -0.8684      2.00000
     10      -0.7335      2.00000
     11      -0.4793      2.00000
     12       0.7451      2.00000
     13       4.9795      2.00000
     14       6.3288      2.00000
     15       6.4246      2.00000
     16       9.3460      2.00000
     17      11.7161      0.00000
     18      15.0867      0.00000
     19      15.3694      0.00000
     20      15.7661      0.00000
     21      16.6937      0.00000
     22      17.4076      0.00000
     23      18.5657      0.00000
     24      18.9991      0.00000

 k-point  16 :      -0.3750    0.2500    0.0000
  band No.  band energies     occupation 
      1     -13.3498      2.00000
      2     -11.1528      2.00000
      3     -10.4328      2.00000
      4      -8.5118      2.00000
      5      -6.7157      2.00000
      6      -4.8872      2.00000
      7      -4.2092      2.00000
      8      -2.7582      2.00000
      9      -1.2623      2.00000
     10      -0.2775      2.00000
     11       0.6818      2.00000
     12       1.5057      2.00000
     13       4.5213      2.00000
     14       6.6685      2.00000
     15       7.2673      2.00000
     16       8.9680      2.00000
     17      12.2324      0.00000
     18      13.9151      0.00000
     19      14.3913      0.00000
     20      14.9998      0.00000
     21      16.8820      0.00000
     22      16.9889      0.00000
     23      18.2523      0.00000
     24      19.1507      0.00000

 k-point  17 :      -0.2500    0.2500    0.0000
  band No.  band energies     occupation 
      1     -13.6197      2.00000
      2     -10.7104      2.00000
      3      -9.3694      2.00000
      4      -9.3093      2.00000
      5      -6.3518      2.00000
      6      -6.2873      2.00000
      7      -4.9517      2.00000
      8      -1.6399      2.00000
      9      -1.5481      2.00000
     10      -0.2245      2.00000
     11       1.4294      2.00000
     12       1.9793      2.00000
     13       4.2382      2.00000
     14       6.8923      2.00000
     15       7.9541      2.00000
     16       8.1391      2.00000
     17      12.5050      0.00000
     18      12.7126      0.00000
     19      13.3204      0.00000
     20      14.0605      0.00000
     21      14.4720      0.00000
     22      14.9156      0.00000
     23      15.5833      0.00000
     24      16.6817      0.00000

 k-point  18 :       0.3750    0.3750    0.0000
  band No.  band energies     occupation 
      1     -12.2426      2.00000
      2     -12.2300      2.00000
      3     -11.5181      2.00000
      4      -7.6057      2.00000
      5      -6.6000      2.00000
      6      -4.5211      2.00000
      7      -2.8220      2.00000
      8      -1.8578      2.00000
      9      -1.7586      2.00000
     10      -1.3008      2.00000
     11      -0.2336      2.00000
     12      -0.1565      2.00000
     13       5.4903      2.00000
     14       5.6156      2.00000
     15       6.3302      2.00000
     16       9.9727      2.00000
     17      11.0310      0.00000
     18      15.4278      0.00000
     19      15.6682      0.00000
     20      16.5301      0.00000
     21      16.9465      0.00000
     22      17.8782      0.00000
     23      18.0720      0.00000
     24      18.6491      0.00000

 k-point  19 :       0.5000    0.3750    0.0000
  band No.  band energies     occupation 
      1     -12.7846      2.00000
      2     -12.0714      2.00000
      3     -10.6254      2.00000
      4      -8.5797      2.00000
      5      -5.9626      2.00000
      6      -4.0877      2.00000
      7      -3.7587      2.00000
      8      -2.5428      2.00000
      9      -2.0156      2.00000
     10      -0.9715      2.00000
     11       0.2107      2.00000
     12       0.9375      2.00000
     13       5.0259      2.00000
     14       5.7539      2.00000
     15       7.0329      2.00000
     16       9.0409      2.00000
     17      12.0236      0.00000
     18      14.1361      0.00000
     19      14.6764      0.00000
     20      15.1713      0.00000
     21      16.7836      0.00000
     22      17.6636      0.00000
     23      18.1796      0.00000
     24      19.2458      0.00000

 k-point  20 :      -0.3750    0.3750    0.0000
  band No.  band energies     occupation 
      1     -13.1642      2.00000
      2     -11.7015      2.00000
      3      -9.5901      2.00000
      4      -9.5691      2.00000
      5      -5.4963      2.00000
      6      -5.3501      2.00000
      7      -3.3864      2.00000
      8      -2.5893      2.00000
      9      -2.4223      2.00000
     10      -0.0679      2.00000
     11       0.2347      2.00000
     12       1.4628      2.00000
     13       4.8614      2.00000
     14       6.2553      2.00000
     15       8.0117      2.00000
     16       8.2803      2.00000
     17      13.0169      0.00000
     18      13.3578      0.00000
     19      14.7522      0.00000
     20      15.0240      0.00000
     21      16.9789      0.00000
     22      17.5158      0.00000
     23      18.4696      0.00000
     24      19.1365      0.00000

 k-point  21 :       0.5000    0.5000    0.0000
  band No.  band energies     occupation 
      1     -12.5131      2.00000
      2     -12.5025      2.00000
      3      -9.6917      2.00000
      4      -9.6677      2.00000
      5      -4.9354      2.00000
      6      -4.8616      2.00000
      7      -3.1537      2.00000
      8      -3.0508      2.00000
      9      -1.7109      2.00000
     10      -1.6258      2.00000
     11       0.7665      2.00000
     12       0.9807      2.00000
     13       5.3936      2.00000
     14       5.4589      2.00000
     15       7.9882      2.00000
     16       8.0873      2.00000
     17      12.9110      0.00000
     18      13.6652      0.00000
     19      14.3041      0.00000
     20      15.2455      0.00000
     21      17.2805      0.00000
     22      18.2399      0.00000
     23      18.7286      0.00000
     24      19.2276      0.00000


----------------------------------------- Iteration    1(   3)  ---------------------------------------


     EDDAV:  cpu time    0.71: real time    0.71
 BZINTS: Fermi energy:  9.633642; 32.000000 electrons
         Band energy: -72.919606;  BLOECHL correction:  0.000000
       DOS:  cpu time    0.00: real time    0.00
    --------------------------------------------
      LOOP:  cpu time    0.71: real time    0.73

 eigenvalue-minimisations  :  1440
 total energy-change (2. order) :-0.4673908E+01  (-0.4662889E+01)
 number of electron      32.0000000 magnetization 
 augmentation part       32.0000000 magnetization 

 Free energy of the ion-electron system (eV)
  ---------------------------------------------------
  alpha Z        PSCENC =       101.11973060
  Ewald energy   TEWEN  =     -1248.61899323
  -1/2 Hartree   DENC   =      -121.24107551
  -exchange  EXHF       =         0.00000000
  -V(xc)+E(xc)   XCENC  =       113.20729372
  PAW double counting   =       302.65154477     -311.85538214
  entropy T*S    EENTRO =         0.00000000
  eigenvalues    EBANDS =       -72.91960642
  atomic energy  EATOM  =      1177.18737338
  ---------------------------------------------------
  free energy    TOTEN  =       -60.46911482 eV

  energy without entropy =      -60.46911482  energy(sigma->0) =      -60.46911482


--------------------------------------------------------------------------------------------------------


 E-fermi :   9.6336     XC(G=0): -12.8513     alpha+bet :-15.5734


 k-point   1 :       0.0000    0.0000    0.0000
  band No.  band energies     occupation 
      1     -14.0304      2.00000
      2      -8.8084      2.00000
      3      -8.8077      2.00000
      4      -8.8075      2.00000
      5      -7.5934      2.00000
      6      -7.5930      2.00000
      7      -7.5924      2.00000
      8      -0.7691      2.00000
      9      -0.7682      2.00000
     10      -0.7677      2.00000
     11       2.5196      2.00000
     12       2.5264      2.00000
     13       3.6399      2.00000
     14       7.9511      2.00000
     15       7.9513      2.00000
     16       7.9522      2.00000
     17      12.1791      0.00000
     18      12.1829      0.00000
     19      12.1964      0.00000
     20      12.9840      0.00000
     21      12.9872      0.00000
     22      12.9919      0.00000
     23      14.2601      0.00000
     24      14.2928      0.00000

 k-point   2 :       0.1250    0.0000    0.0000
  band No.  band energies     occupation 
      1     -13.9367      2.00000
      2      -9.6454      2.00000
      3      -9.0447      2.00000
      4      -9.0444      2.00000
      5      -7.2065      2.00000
      6      -7.2062      2.00000
      7      -6.6194      2.00000
      8      -1.0472      2.00000
      9      -1.0460      2.00000
     10      -0.6775      2.00000
     11       2.1482      2.00000
     12       2.3307      2.00000
     13       3.7381      2.00000
     14       7.5837      2.00000
     15       7.9269      2.00000
     16       7.9294      2.00000
     17      12.2406      0.00000
     18      12.2528      0.00000
     19      12.6701      0.00000
     20      13.0627      0.00000
     21      13.4073      0.00000
     22      13.4317      0.00000
     23      14.3395      0.00000
     24      14.7269      0.00000

 k-point   3 :       0.2500    0.0000    0.0000
  band No.  band energies     occupation 
      1     -13.6572      2.00000
      2     -10.7507      2.00000
      3      -9.3940      2.00000
      4      -9.3934      2.00000
      5      -6.4202      2.00000
      6      -6.4199      2.00000
      7      -5.1145      2.00000
      8      -1.7721      2.00000
      9      -1.7718      2.00000
     10      -0.4121      2.00000
     11       1.1529      2.00000
     12       1.8445      2.00000
     13       4.0240      2.00000
     14       6.7849      2.00000
     15       7.8665      2.00000
     16       7.8667      2.00000
     17      12.3745      0.00000
     18      12.3775      0.00000
     19      13.1973      0.00000
     20      13.7351      0.00000
     21      14.2193      0.00000
     22      14.5344      0.00000
     23      14.5729      0.00000
     24      15.7272      0.00000

 k-point   4 :       0.3750    0.0000    0.0000
  band No.  band energies     occupation 
      1     -13.1935      2.00000
      2     -11.7308      2.00000
      3      -9.6319      2.00000
      4      -9.6317      2.00000
      5      -5.5352      2.00000
      6      -5.5348      2.00000
      7      -3.4932      2.00000
      8      -2.6846      2.00000
      9      -2.6835      2.00000
     10      -0.2442      2.00000
     11       0.0148      2.00000
     12       1.2136      2.00000
     13       4.4963      2.00000
     14       5.9209      2.00000
     15       7.8105      2.00000
     16       7.8106      2.00000
     17      12.5156      0.00000
     18      12.5252      0.00000
     19      13.4413      0.00000
     20      14.0463      0.00000
     21      15.0711      0.00000
     22      16.1663      0.00000
     23      16.2117      0.00000
     24      17.3419      0.00000

 k-point   5 :       0.5000    0.0000    0.0000
  band No.  band energies     occupation 
      1     -12.5495      2.00000
      2     -12.5493      2.00000
      3      -9.7139      2.00000
      4      -9.7135      2.00000
      5      -4.9945      2.00000
      6      -4.9939      2.00000
      7      -3.2465      2.00000
      8      -3.2461      2.00000
      9      -1.8396      2.00000
     10      -1.8391      2.00000
     11       0.5735      2.00000
     12       0.5759      2.00000
     13       5.1377      2.00000
     14       5.1378      2.00000
     15       7.7880      2.00000
     16       7.7886      2.00000
     17      12.5701      0.00000
     18      12.5745      0.00000
     19      13.7336      0.00000
     20      13.7415      0.00000
     21      16.4163      0.00000
     22      16.4797      0.00000
     23      17.9144      0.00000
     24      18.1400      0.00000

 k-point   6 :       0.1250    0.1250    0.0000
  band No.  band energies     occupation 
      1     -13.7504      2.00000
      2     -10.1443      2.00000
      3     -10.1439      2.00000
      4      -8.5654      2.00000
      5      -7.3724      2.00000
      6      -5.8424      2.00000
      7      -5.8418      2.00000
      8      -1.8674      2.00000
      9      -0.8652      2.00000
     10      -0.8638      2.00000
     11       1.5046      2.00000
     12       1.9536      2.00000
     13       3.9288      2.00000
     14       7.2771      2.00000
     15       7.2773      2.00000
     16       8.2577      2.00000
     17      11.9061      0.00000
     18      13.0728      0.00000
     19      13.0865      0.00000
     20      13.5073      0.00000
     21      13.5174      0.00000
     22      14.3769      0.00000
     23      14.4995      0.00000
     24      15.2258      0.00000

 k-point   7 :       0.2500    0.1250    0.0000
  band No.  band energies     occupation 
      1     -13.3791      2.00000
      2     -11.1929      2.00000
      3     -10.4884      2.00000
      4      -8.5550      2.00000
      5      -6.8065      2.00000
      6      -4.9657      2.00000
      7      -4.2809      2.00000
      8      -2.9121      2.00000
      9      -1.4842      2.00000
     10      -0.5095      2.00000
     11       0.3784      2.00000
     12       1.3214      2.00000
     13       4.3089      2.00000
     14       6.4159      2.00000
     15       7.0529      2.00000
     16       8.5178      2.00000
     17      11.6760      0.00000
     18      13.4412      0.00000
     19      13.7262      0.00000
     20      14.3240      0.00000
     21      14.4322      0.00000
     22      14.7067      0.00000
     23      16.0798      0.00000
     24      16.3210      0.00000

 k-point   8 :       0.3750    0.1250    0.0000
  band No.  band energies     occupation 
      1     -12.8250      2.00000
      2     -12.0933      2.00000
      3     -10.6633      2.00000
      4      -8.6543      2.00000
      5      -6.0360      2.00000
      6      -4.1732      2.00000
      7      -3.8538      2.00000
      8      -2.6586      2.00000
      9      -2.1995      2.00000
     10      -1.0640      2.00000
     11       0.0007      2.00000
     12       0.6329      2.00000
     13       4.8667      2.00000
     14       5.5822      2.00000
     15       6.9352      2.00000
     16       8.6599      2.00000
     17      11.5627      0.00000
     18      13.6607      0.00000
     19      13.9906      0.00000
     20      14.2530      0.00000
     21      15.6468      0.00000
     22      16.3607      0.00000
     23      16.9511      0.00000
     24      17.8729      0.00000

 k-point   9 :       0.5000    0.1250    0.0000
  band No.  band energies     occupation 
      1     -12.8247      2.00000
      2     -12.0936      2.00000
      3     -10.6633      2.00000
      4      -8.6541      2.00000
      5      -6.0355      2.00000
      6      -4.1728      2.00000
      7      -3.8538      2.00000
      8      -2.6589      2.00000
      9      -2.2001      2.00000
     10      -1.0636      2.00000
     11      -0.0001      2.00000
     12       0.6320      2.00000
     13       4.8668      2.00000
     14       5.5824      2.00000
     15       6.9355      2.00000
     16       8.6607      2.00000
     17      11.5647      0.00000
     18      13.6534      0.00000
     19      13.9780      0.00000
     20      14.2569      0.00000
     21      15.6313      0.00000
     22      16.4275      0.00000
     23      17.1370      0.00000
     24      17.8121      0.00000

 k-point  10 :      -0.3750    0.1250    0.0000
  band No.  band energies     occupation 
      1     -13.3791      2.00000
      2     -11.1931      2.00000
      3     -10.4883      2.00000
      4      -8.5548      2.00000
      5      -6.8066      2.00000
      6      -4.9650      2.00000
      7      -4.2801      2.00000
      8      -2.9112      2.00000
      9      -1.4850      2.00000
     10      -0.5091      2.00000
     11       0.3805      2.00000
     12       1.3219      2.00000
     13       4.3089      2.00000
     14       6.4160      2.00000
     15       7.0531      2.00000
     16       8.5186      2.00000
     17      11.6733      0.00000
     18      13.4335      0.00000
     19      13.7197      0.00000
     20      14.3100      0.00000
     21      14.4315      0.00000
     22      14.6928      0.00000
     23      16.0426      0.00000
     24      16.3138      0.00000

 k-point  11 :      -0.2500    0.1250    0.0000
  band No.  band energies     occupation 
      1     -13.7504      2.00000
      2     -10.1441      2.00000
      3     -10.1437      2.00000
      4      -8.5656      2.00000
      5      -7.3728      2.00000
      6      -5.8423      2.00000
      7      -5.8410      2.00000
      8      -1.8677      2.00000
      9      -0.8657      2.00000
     10      -0.8632      2.00000
     11       1.5051      2.00000
     12       1.9563      2.00000
     13       3.9286      2.00000
     14       7.2767      2.00000
     15       7.2774      2.00000
     16       8.2605      2.00000
     17      11.9024      0.00000
     18      13.0731      0.00000
     19      13.0896      0.00000
     20      13.5124      0.00000
     21      13.5490      0.00000
     22      14.3868      0.00000
     23      14.4927      0.00000
     24      15.2512      0.00000

 k-point  12 :      -0.1250    0.1250    0.0000
  band No.  band energies     occupation 
      1     -13.9368      2.00000
      2      -9.6458      2.00000
      3      -9.0445      2.00000
      4      -9.0443      2.00000
      5      -7.2065      2.00000
      6      -7.2061      2.00000
      7      -6.6194      2.00000
      8      -1.0466      2.00000
      9      -1.0452      2.00000
     10      -0.6772      2.00000
     11       2.1506      2.00000
     12       2.3319      2.00000
     13       3.7387      2.00000
     14       7.5826      2.00000
     15       7.9303      2.00000
     16       7.9324      2.00000
     17      12.2404      0.00000
     18      12.2693      0.00000
     19      12.6722      0.00000
     20      13.0481      0.00000
     21      13.4111      0.00000
     22      13.4480      0.00000
     23      14.2877      0.00000
     24      14.6834      0.00000

 k-point  13 :       0.2500    0.2500    0.0000
  band No.  band energies     occupation 
      1     -12.9171      2.00000
      2     -11.4618      2.00000
      3     -11.4616      2.00000
      4      -7.8404      2.00000
      5      -6.8725      2.00000
      6      -4.0336      2.00000
      7      -3.4353      2.00000
      8      -3.4347      2.00000
      9      -1.0085      2.00000
     10      -1.0080      2.00000
     11      -0.6533      2.00000
     12       0.4862      2.00000
     13       4.7757      2.00000
     14       6.1879      2.00000
     15       6.1881      2.00000
     16       9.1651      2.00000
     17      11.0120      0.00000
     18      14.6830      0.00000
     19      14.6952      0.00000
     20      14.9199      0.00000
     21      14.9387      0.00000
     22      14.9682      0.00000
     23      16.6427      0.00000
     24      17.1872      0.00000

 k-point  14 :       0.3750    0.2500    0.0000
  band No.  band energies     occupation 
      1     -12.2757      2.00000
      2     -12.2754      2.00000
      3     -11.5519      2.00000
      4      -7.6399      2.00000
      5      -6.6421      2.00000
      6      -4.6317      2.00000
      7      -2.9505      2.00000
      8      -1.9514      2.00000
      9      -1.9501      2.00000
     10      -1.3974      2.00000
     11      -0.3441      2.00000
     12      -0.3432      2.00000
     13       5.4107      2.00000
     14       5.4107      2.00000
     15       6.1108      2.00000
     16       9.5449      2.00000
     17      10.6364      0.00000
     18      14.8264      0.00000
     19      15.1139      0.00000
     20      15.2690      0.00000
     21      15.9472      0.00000
     22      16.1801      0.00000
     23      16.4733      0.00000
     24      17.3736      0.00000

 k-point  15 :       0.5000    0.2500    0.0000
  band No.  band energies     occupation 
      1     -12.9169      2.00000
      2     -11.4618      2.00000
      3     -11.4614      2.00000
      4      -7.8401      2.00000
      5      -6.8728      2.00000
      6      -4.0332      2.00000
      7      -3.4350      2.00000
      8      -3.4337      2.00000
      9      -1.0087      2.00000
     10      -1.0071      2.00000
     11      -0.6524      2.00000
     12       0.4864      2.00000
     13       4.7757      2.00000
     14       6.1879      2.00000
     15       6.1881      2.00000
     16       9.1654      2.00000
     17      11.0168      0.00000
     18      14.6955      0.00000
     19      14.7466      0.00000
     20      14.9187      0.00000
     21      14.9549      0.00000
     22      15.0033      0.00000
     23      16.5446      0.00000
     24      17.4068      0.00000

 k-point  16 :      -0.3750    0.2500    0.0000
  band No.  band energies     occupation 
      1     -13.3790      2.00000
      2     -11.1931      2.00000
      3     -10.4880      2.00000
      4      -8.5547      2.00000
      5      -6.8065      2.00000
      6      -4.9653      2.00000
      7      -4.2806      2.00000
      8      -2.9114      2.00000
      9      -1.4839      2.00000
     10      -0.5099      2.00000
     11       0.3808      2.00000
     12       1.3208      2.00000
     13       4.3089      2.00000
     14       6.4160      2.00000
     15       7.0531      2.00000
     16       8.5188      2.00000
     17      11.6773      0.00000
     18      13.4382      0.00000
     19      13.7188      0.00000
     20      14.3401      0.00000
     21      14.5350      0.00000
     22      14.7169      0.00000
     23      16.0539      0.00000
     24      16.2665      0.00000

 k-point  17 :      -0.2500    0.2500    0.0000
  band No.  band energies     occupation 
      1     -13.6572      2.00000
      2     -10.7507      2.00000
      3      -9.3940      2.00000
      4      -9.3930      2.00000
      5      -6.4202      2.00000
      6      -6.4195      2.00000
      7      -5.1134      2.00000
[...]
  band No.  band energies     occupation 
      1     -14.1579      2.00000
      2     -13.4657      2.00000
      3     -12.1118      2.00000
      4     -10.2141      2.00000
      5      -7.7091      2.00000
      6      -5.9126      2.00000
      7      -5.4631      2.00000
      8      -4.4308      2.00000
      9      -3.8918      2.00000
     10      -2.8882      2.00000
     11      -1.7739      2.00000
     12      -1.5112      2.00000
     13      -1.1714      2.00000
     14      -0.7499      2.00000
     15       0.7006      2.00000
     16       2.5880      2.00000
     17       5.6266      0.00000
     18       7.8394      0.00000
     19       8.5860      0.00000
     20       9.4676      0.00000
     21       9.9792      0.00000
     22      11.1477      0.00000
     23      11.2143      0.00000
     24      11.4946      0.00000

 k-point   9 :       0.5000    0.1250    0.0000
  band No.  band energies     occupation 
      1     -14.1579      2.00000
      2     -13.4657      2.00000
      3     -12.1118      2.00000
      4     -10.2143      2.00000
      5      -7.7080      2.00000
      6      -5.9135      2.00000
      7      -5.4641      2.00000
      8      -4.4303      2.00000
      9      -3.8907      2.00000
     10      -2.8893      2.00000
     11      -1.7745      2.00000
     12      -1.5111      2.00000
     13      -1.1702      2.00000
     14      -0.7500      2.00000
     15       0.7008      2.00000
     16       2.5873      2.00000
     17       5.6276      0.00000
     18       7.8388      0.00000
     19       8.5860      0.00000
     20       9.4676      0.00000
     21       9.9798      0.00000
     22      11.1471      0.00000
     23      11.2143      0.00000
     24      11.4940      0.00000

 k-point  10 :      -0.3750    0.1250    0.0000
  band No.  band energies     occupation 
      1     -14.6827      2.00000
      2     -12.6135      2.00000
      3     -11.9470      2.00000
      4     -10.1322      2.00000
      5      -8.3993      2.00000
      6      -6.6533      2.00000
      7      -5.9905      2.00000
      8      -4.5832      2.00000
      9      -3.2093      2.00000
     10      -2.2617      2.00000
     11      -2.0997      2.00000
     12      -1.4807      2.00000
     13      -0.5072      2.00000
     14       0.1542      2.00000
     15       0.8426      2.00000
     16       2.4766      2.00000
     17       5.6237      0.00000
     18       7.5174      0.00000
     19       7.9201      0.00000
     20       8.4502      0.00000
     21      10.5277      0.00000
     22      10.8969      0.00000
     23      11.4082      0.00000
     24      11.6716      0.00000

 k-point  11 :      -0.2500    0.1250    0.0000
  band No.  band energies     occupation 
      1     -15.0344      2.00000
      2     -11.6229      2.00000
      3     -11.6228      2.00000
      4     -10.1625      2.00000
      5      -8.9073      2.00000
      6      -7.4824      2.00000
      7      -7.4806      2.00000
      8      -3.5792      2.00000
      9      -2.6005      2.00000
     10      -2.5982      2.00000
     11      -2.4964      2.00000
     12      -0.3687      2.00000
     13       0.1046      2.00000
     14       1.1163      2.00000
     15       1.1176      2.00000
     16       2.2306      2.00000
     17       5.7221      0.00000
     18       7.0281      0.00000
     19       7.0309      0.00000
     20       7.4753      0.00000
     21      10.6248      0.00000
     22      10.6261      0.00000
     23      11.8859      0.00000
     24      11.8860      0.00000

 k-point  12 :      -0.1250    0.1250    0.0000
  band No.  band energies     occupation 
      1     -15.2110      2.00000
      2     -11.1562      2.00000
      3     -10.5997      2.00000
      4     -10.5997      2.00000
      5      -8.7617      2.00000
      6      -8.7617      2.00000
      7      -8.2168      2.00000
      8      -2.7736      2.00000
      9      -2.7736      2.00000
     10      -2.7121      2.00000
     11      -2.4061      2.00000
     12       0.2733      2.00000
     13       0.4690      2.00000
     14       1.5023      2.00000
     15       1.8841      2.00000
     16       1.8841      2.00000
     17       6.0212      0.00000
     18       6.0212      0.00000
     19       6.4795      0.00000
     20       7.2525      0.00000
     21      10.1632      0.00000
     22      10.5199      0.00000
     23      10.5199      0.00000
     24      11.5159      0.00000

 k-point  13 :       0.2500    0.2500    0.0000
  band No.  band energies     occupation 
      1     -14.2452      2.00000
      2     -12.8674      2.00000
      3     -12.8674      2.00000
      4      -9.4627      2.00000
      5      -8.4808      2.00000
      6      -5.6379      2.00000
      7      -5.1869      2.00000
      8      -5.1869      2.00000
      9      -2.7498      2.00000
     10      -2.7498      2.00000
     11      -2.4932      2.00000
     12      -1.6085      2.00000
     13      -1.3139      2.00000
     14      -0.1010      2.00000
     15      -0.1010      2.00000
     16       3.1615      2.00000
     17       5.0138      0.00000
     18       8.4762      0.00000
     19       8.9664      0.00000
     20       8.9664      0.00000
     21      10.2383      0.00000
     22      10.2383      0.00000
     23      11.7211      0.00000
     24      12.2340      0.00000

 k-point  14 :       0.3750    0.2500    0.0000
  band No.  band energies     occupation 
      1     -13.6382      2.00000
      2     -13.6382      2.00000
      3     -12.9531      2.00000
      4      -9.2596      2.00000
      5      -8.3097      2.00000
      6      -6.1781      2.00000
      7      -4.7375      2.00000
      8      -3.7578      2.00000
      9      -3.7557      2.00000
     10      -3.1197      2.00000
     11      -2.1130      2.00000
     12      -2.1107      2.00000
     13      -0.9366      2.00000
     14      -0.9364      2.00000
     15      -0.1910      2.00000
     16       3.5388      2.00000
     17       4.6722      0.00000
     18       9.1277      0.00000
     19       9.2510      0.00000
     20       9.2510      0.00000
     21      10.1305      0.00000
     22      10.3844      0.00000
     23      10.3855      0.00000
     24      12.3105      0.00000

 k-point  15 :       0.5000    0.2500    0.0000
  band No.  band energies     occupation 
      1     -14.2452      2.00000
      2     -12.8674      2.00000
      3     -12.8674      2.00000
      4      -9.4643      2.00000
      5      -8.4778      2.00000
      6      -5.6395      2.00000
      7      -5.1883      2.00000
      8      -5.1858      2.00000
      9      -2.7509      2.00000
     10      -2.7480      2.00000
     11      -2.4966      2.00000
     12      -1.6084      2.00000
     13      -1.3102      2.00000
     14      -0.1013      2.00000
     15      -0.1007      2.00000
     16       3.1592      2.00000
     17       5.0167      0.00000
     18       8.4762      0.00000
     19       8.9655      0.00000
     20       8.9674      0.00000
     21      10.2383      0.00000
     22      10.2383      0.00000
     23      11.7201      0.00000
     24      12.0676      0.00000

 k-point  16 :      -0.3750    0.2500    0.0000
  band No.  band energies     occupation 
      1     -14.6827      2.00000
      2     -12.6135      2.00000
      3     -11.9471      2.00000
      4     -10.1323      2.00000
      5      -8.3990      2.00000
      6      -6.6513      2.00000
      7      -5.9925      2.00000
      8      -4.5835      2.00000
      9      -3.2117      2.00000
     10      -2.2592      2.00000
     11      -2.0996      2.00000
     12      -1.4824      2.00000
     13      -0.5052      2.00000
     14       0.1549      2.00000
     15       0.8416      2.00000
     16       2.4763      2.00000
     17       5.6242      0.00000
     18       7.5199      0.00000
     19       7.9201      0.00000
     20       8.4480      0.00000
     21      10.5280      0.00000
     22      10.8981      0.00000
     23      11.4080      0.00000
     24      11.6736      0.00000

 k-point  17 :      -0.2500    0.2500    0.0000
  band No.  band energies     occupation 
      1     -14.9465      2.00000
      2     -12.1953      2.00000
      3     -10.9171      2.00000
      4     -10.9171      2.00000
      5      -8.0315      2.00000
      6      -8.0315      2.00000
      7      -6.7869      2.00000
      8      -3.4865      2.00000
      9      -3.4865      2.00000
     10      -2.4130      2.00000
     11      -2.1532      2.00000
     12      -0.7185      2.00000
     13      -0.0010      2.00000
     14       0.5876      2.00000
     15       1.7646      2.00000
     16       1.7646      2.00000
     17       6.2943      0.00000
     18       6.2943      0.00000
     19       7.5863      0.00000
     20       7.7632      0.00000
     21      10.3134      0.00000
     22      11.1411      0.00000
     23      11.4577      0.00000
     24      11.6316      0.00000

 k-point  18 :       0.3750    0.3750    0.0000
  band No.  band energies     occupation 
      1     -13.6382      2.00000
      2     -13.6382      2.00000
      3     -12.9531      2.00000
      4      -9.2605      2.00000
      5      -8.3079      2.00000
      6      -6.1791      2.00000
      7      -4.7348      2.00000
      8      -3.7589      2.00000
      9      -3.7589      2.00000
     10      -3.1227      2.00000
     11      -2.1094      2.00000
     12      -2.1094      2.00000
     13      -0.9363      2.00000
     14      -0.9363      2.00000
     15      -0.1914      2.00000
     16       3.5371      2.00000
     17       4.6743      0.00000
     18       9.1293      0.00000
     19       9.2510      0.00000
     20       9.2510      0.00000
     21      10.1305      0.00000
     22      10.3840      0.00000
     23      10.3840      0.00000
     24      12.3146      0.00000

 k-point  19 :       0.5000    0.3750    0.0000
  band No.  band energies     occupation 
      1     -14.1580      2.00000
      2     -13.4657      2.00000
      3     -12.1118      2.00000
      4     -10.2145      2.00000
      5      -7.7067      2.00000
      6      -5.9109      2.00000
      7      -5.4652      2.00000
      8      -4.4327      2.00000
      9      -3.8936      2.00000
     10      -2.8914      2.00000
     11      -1.7715      2.00000
     12      -1.5110      2.00000
     13      -1.1678      2.00000
     14      -0.7496      2.00000
     15       0.7000      2.00000
     16       2.5864      2.00000
     17       5.6291      0.00000
     18       7.8408      0.00000
     19       8.5860      0.00000
     20       9.4676      0.00000
     21       9.9780      0.00000
     22      11.1491      0.00000
     23      11.2143      0.00000
     24      11.4933      0.00000

 k-point  20 :      -0.3750    0.3750    0.0000
  band No.  band energies     occupation 
      1     -14.5073      2.00000
      2     -13.1226      2.00000
      3     -11.1371      2.00000
      4     -11.1371      2.00000
      5      -7.2064      2.00000
      6      -7.2064      2.00000
      7      -5.2322      2.00000
      8      -4.3632      2.00000
      9      -4.3632      2.00000
     10      -2.0904      2.00000
     11      -1.9176      2.00000
     12      -1.7466      2.00000
     13      -0.6072      2.00000
     14      -0.3634      2.00000
     15       1.6657      2.00000
     16       1.6657      2.00000
     17       6.5868      0.00000
     18       6.5868      0.00000
     19       8.1419      0.00000
     20       9.2890      0.00000
     21       9.8935      0.00000
     22      10.6142      0.00000
     23      11.2286      0.00000
     24      12.4740      0.00000

 k-point  21 :       0.5000    0.5000    0.0000
  band No.  band energies     occupation 
      1     -13.8977      2.00000
      2     -13.8977      2.00000
      3     -11.2135      2.00000
      4     -11.2135      2.00000
      5      -6.7152      2.00000
      6      -6.7152      2.00000
      7      -4.8837      2.00000
      8      -4.8837      2.00000
      9      -3.6436      2.00000
     10      -3.6436      2.00000
     11      -1.2421      2.00000
     12      -1.2421      2.00000
     13      -1.2210      2.00000
     14      -1.2210      2.00000
     15       1.6271      2.00000
     16       1.6271      2.00000
     17       6.7104      0.00000
     18       6.7104      0.00000
     19       8.9153      0.00000
     20       8.9153      0.00000
     21      10.8406      0.00000
     22      10.8406      0.00000
     23      10.9091      0.00000
     24      10.9091      0.00000


--------------------------------------------------------------------------------------------------------


 soft charge-density along one line, spin component           1
         0         1         2         3         4         5         6         7         8         9
 total charge-density along one line
 
 pseudopotential strength for first ion, spin component:           1
  9.826   0.007   0.000  -0.000  -0.000  -0.000   0.000   0.000
  0.007  -0.002   0.000   0.000  -0.000  -0.000   0.000   0.000
  0.000   0.000  -4.017   0.000   0.000  -0.011   0.000   0.000
 -0.000   0.000   0.000  -4.010  -0.000   0.000  -0.008  -0.000
 -0.000  -0.000   0.000  -0.000  -4.017   0.000  -0.000  -0.011
 -0.000  -0.000  -0.011   0.000   0.000  -0.765   0.000   0.000
  0.000   0.000   0.000  -0.008  -0.000   0.000  -0.765  -0.000
  0.000   0.000   0.000  -0.000  -0.011   0.000  -0.000  -0.765
 total augmentation occupancy for first ion, spin component:           1
  1.439  -0.998   0.000  -0.000  -0.000   0.000   0.000  -0.000
 -0.998   0.899  -0.000   0.000   0.000  -0.000  -0.000   0.000
  0.000  -0.000   1.138   0.000  -0.000   0.226   0.000  -0.000
 -0.000  -0.000   0.000   0.925   0.000  -0.000   0.179   0.000
 -0.000   0.000  -0.000   0.000   1.138  -0.000  -0.000   0.226
  0.000  -0.000   0.226   0.000  -0.000   0.049  -0.000  -0.000
  0.000  -0.000  -0.000   0.179   0.000  -0.000   0.036  -0.000
 -0.000   0.000  -0.000  -0.000   0.226  -0.000  -0.000   0.049


------------------------ aborting loop because EDIFF is reached ----------------------------------------


    CHARGE:  cpu time    0.03: real time    0.03
    FORLOC:  cpu time    0.00: real time    0.00
    FORNL :  cpu time    0.05: real time    0.05
    STRESS:  cpu time    0.19: real time    0.19
    FORHAR:  cpu time    0.00: real time    0.00
    MIXING:  cpu time    0.00: real time    0.00

  FORCE on cell =-STRESS in cart. coord.  units (eV):
  Direction    XX          YY          ZZ          XY          YZ          ZX
  --------------------------------------------------------------------------------------
  Alpha Z    62.39846    62.39846    62.39846
  Ewald     253.62387   253.43985 -1298.95535    -0.15936    -0.00000     0.00000
  Hartree   409.65713   409.62955  -361.07962    -0.02389    -0.00000     0.00000
  E(xc)    -115.54525  -115.54598  -120.18005    -0.00063     0.00000    -0.00000
  Local   -1064.67118 -1064.49255  1191.17784     0.15470    -0.00000     0.00000
  n-local   -25.10043   -25.48423   -27.99988     0.10955    -0.00000    -0.00000
  augment    -2.72227    -2.72219    -2.50964     0.00006    -0.00000     0.00000
  Kinetic   457.20123   472.35757   560.54759    -4.34089     0.00000     0.00000
  Fock        0.00000     0.00000     0.00000     0.00000     0.00000     0.00000
  -------------------------------------------------------------------------------------
  Total     -17.78651   -17.79144     3.39935    -0.00427     0.00000     0.00000
  in kB    -340.99128  -341.08579    65.17011    -0.08185     0.00000     0.00000
  external pressure =     -205.64 kB  Pullay stress =        0.00 kB


 VOLUME and BASIS-vectors are now :
 -----------------------------------------------------------------------------
  energy-cutoff  :      500.00
  volume of cell :       83.57
      direct lattice vectors                 reciprocal lattice vectors
     5.072493463 -0.000001732  0.000000000     0.197141742  0.113819928 -0.000000000
    -2.536248231  4.392907333  0.000000000     0.000000078  0.227639720 -0.000000000
     0.000000000  0.000000000  3.750460082    -0.000000000 -0.000000000  0.266633954

  length of vectors
     5.072493463  5.072493463  3.750460082     0.227639720  0.227639720  0.266633954


 FORCES acting on ions
    electron-ion (+dipol)            ewald-force                    non-local-force                 convergence-correction
 -----------------------------------------------------------------------------------------------
   -.263E-01 0.152E-01 -.295E-03   0.313E-01 -.180E-01 0.126E-15   0.300E-02 -.173E-02 0.949E-19   0.103E-03 -.595E-04 0.129E-04
   0.262E-01 -.152E-01 -.312E-03   -.313E-01 0.181E-01 0.216E-15   -.300E-02 0.173E-02 0.203E-19   -.103E-03 0.595E-04 0.134E-04
   -.263E-01 0.152E-01 -.295E-03   0.313E-01 -.181E-01 0.351E-16   0.300E-02 -.173E-02 -.136E-19   0.103E-03 -.595E-04 0.129E-04
   0.263E-01 -.152E-01 -.312E-03   -.313E-01 0.181E-01 0.199E-15   -.300E-02 0.173E-02 -.339E-19   -.103E-03 0.595E-04 0.134E-04
   -.263E-01 0.152E-01 -.295E-03   0.313E-01 -.181E-01 0.204E-15   0.300E-02 -.173E-02 0.136E-19   0.103E-03 -.595E-04 0.129E-04
   0.263E-01 -.152E-01 -.312E-03   -.313E-01 0.180E-01 0.247E-15   -.300E-02 0.173E-02 -.203E-19   -.103E-03 0.595E-04 0.134E-04
   -.263E-01 0.152E-01 -.295E-03   0.313E-01 -.181E-01 0.283E-15   0.300E-02 -.173E-02 0.136E-19   0.103E-03 -.595E-04 0.129E-04
   0.263E-01 -.152E-01 -.312E-03   -.313E-01 0.180E-01 0.226E-16   -.300E-02 0.173E-02 -.339E-19   -.103E-03 0.595E-04 0.134E-04
 -----------------------------------------------------------------------------------------------
   -.160E-03 0.101E-03 -.243E-02   0.863E-14 0.285E-13 0.133E-14   0.694E-17 0.451E-16 0.407E-19   -.714E-08 0.412E-08 0.105E-03
 
 
 POSITION                                       TOTAL-FORCE (eV/Angst)
 -----------------------------------------------------------------------------------
     -0.00011      0.00006      0.27442         0.008111     -0.004683     -0.000000
      1.26821      0.73210      0.27442        -0.008111      0.004683      0.000000
      2.53614      0.00006      0.27442         0.008111     -0.004683     -0.000000
      3.80445      0.73210      0.27442        -0.008111      0.004683      0.000000
     -1.26823      2.19652      0.27442         0.008111     -0.004683     -0.000000
      0.00008      2.92856      0.27442        -0.008111      0.004683      0.000000
      1.26801      2.19652      0.27442         0.008111     -0.004683     -0.000000
      2.53633      2.92856      0.27442        -0.008111      0.004683      0.000000
 -----------------------------------------------------------------------------------
    total drift:                               -0.000160      0.000101     -0.002321


--------------------------------------------------------------------------------------------------------



  FREE ENERGIE OF THE ION-ELECTRON SYSTEM (eV)
  ---------------------------------------------------
  free  energy   TOTEN  =       -68.537972 eV

  energy  without entropy=      -68.537972  energy(sigma->0) =      -68.537972
 
 d Force =-0.4135120E-05[-0.751E-05,-0.763E-06]  d Energy =-0.6588046E+00 0.659E+00
 d Force =-0.1462182E-04[-0.290E-04,-0.282E-06]  d Ewald  = 0.5314063E+02-0.531E+02


--------------------------------------------------------------------------------------------------------


    POTLOK:  cpu time    0.00: real time    0.00


--------------------------------------------------------------------------------------------------------


 stress matrix after NEB project (eV)
    -17.78651     -0.00427      0.00000
     -0.00427    -17.79144      0.00000
      0.00000      0.00000      3.39935
  FORCES: max atom, RMS     0.009366    0.009366
  FORCE total and by dimension    0.026490    0.008111
  Stress total and by dimension   25.386034   17.791438
