<?xml version="1.0" encoding="ISO-8859-1"?>
<modeling>
 <generator>
  <i name="program" type="string">vasp </i>
  <i name="version" type="string">5.2.11  </i>
  <i name="subversion" type="string">25Nov10 complex  parallel </i>
  <i name="platform" type="string">LinuxIFC </i>
  <i name="date" type="string">2018 12 15 </i>
  <i name="time" type="string">12:56:37 </i>
 </generator>
 <incar>
  <i type="string" name="SYSTEM"> NAME</i>
  <i type="int" name="ISTART">     0</i>
  <i type="string" name="PREC">medium</i>
  <i type="int" name="ICHARG">     2</i>
  <i type="int" name="NELM">   100</i>
  <i type="int" name="NELMDL">    -5</i>
  <i type="int" name="NELMIN">     5</i>
  <i type="int" name="IBRION">     2</i>
  <i name="EDIFF">      0.00010000</i>
  <i name="EDIFFG">     -0.01000000</i>
  <i type="int" name="NSW">   500</i>
  <i type="int" name="ISIF">     3</i>
  <i name="ENCUT">    500.00000000</i>
  <i type="int" name="ISMEAR">    -5</i>
  <i name="SIGMA">      0.10000000</i>
  <i type="int" name="NELM">   100</i>
  <i type="logical" name="LPEAD"> F  </i>
  <i type="logical" name="LCALCPOL"> F  </i>
  <i type="logical" name="LCALCEPS"> F  </i>
  <v name="EFIELD_PEAD">      0.00000000      0.00000000      0.00000000</v>
  <i type="logical" name="LEFG"> F  </i>
  <i type="logical" name="LRHFATM"> F  </i>
  <i type="string" name="METAGGA">--</i>
  <i type="int" name="LMAXTAU">     0</i>
 </incar>
 <kpoints>
  <generation param="Gamma">
   <v type="int" name="divisions">       8        8        1 </v>
   <v name="usershift">      0.00000000       0.00000000       0.00000000 </v>
   <v name="genvec1">      0.12500000       0.00000000       0.00000000 </v>
   <v name="genvec2">      0.00000000       0.12500000       0.00000000 </v>
   <v name="genvec3">      0.00000000       0.00000000       1.00000000 </v>
   <v name="shift">      0.00000000       0.00000000       0.00000000 </v>
  </generation>
  <varray name="kpointlist" >
   <v>       0.00000000       0.00000000       0.00000000 </v>
   <v>       0.12500000       0.00000000       0.00000000 </v>
   <v>       0.25000000       0.00000000       0.00000000 </v>
   <v>       0.37500000       0.00000000       0.00000000 </v>
   <v>       0.50000000       0.00000000       0.00000000 </v>
   <v>       0.12500000       0.12500000       0.00000000 </v>
   <v>       0.25000000       0.12500000       0.00000000 </v>
   <v>       0.37500000       0.12500000       0.00000000 </v>
   <v>       0.50000000       0.12500000       0.00000000 </v>
   <v>      -0.37500000       0.12500000       0.00000000 </v>
   <v>      -0.25000000       0.12500000       0.00000000 </v>
   <v>      -0.12500000       0.12500000       0.00000000 </v>
   <v>       0.25000000       0.25000000       0.00000000 </v>
   <v>       0.37500000       0.25000000       0.00000000 </v>
   <v>       0.50000000       0.25000000       0.00000000 </v>
   <v>      -0.37500000       0.25000000       0.00000000 </v>
   <v>      -0.25000000       0.25000000       0.00000000 </v>
   <v>       0.37500000       0.37500000       0.00000000 </v>
   <v>       0.50000000       0.37500000       0.00000000 </v>
   <v>      -0.37500000       0.37500000       0.00000000 </v>
   <v>       0.50000000       0.50000000       0.00000000 </v>
  </varray>
  <varray name="weights" >
   <v>       0.01562500 </v>
   <v>       0.06250000 </v>
   <v>       0.06250000 </v>
   <v>       0.06250000 </v>
   <v>       0.03125000 </v>
   <v>       0.03125000 </v>
   <v>       0.06250000 </v>
   <v>       0.06250000 </v>
   <v>       0.06250000 </v>
   <v>       0.06250000 </v>
   <v>       0.06250000 </v>
   <v>       0.03125000 </v>
   <v>       0.03125000 </v>
   <v>       0.06250000 </v>
   <v>       0.06250000 </v>
   <v>       0.06250000 </v>
   <v>       0.03125000 </v>
   <v>       0.03125000 </v>
   <v>       0.06250000 </v>
   <v>       0.03125000 </v>
   <v>       0.01562500 </v>
  </varray>
  <varray name="tetrahedronlist"  type="int" >
   <v type="int" >        4        2        2        2        6 </v>
   <v type="int" >        4        1        2        2        2 </v>
   <v type="int" >        2        1        1        2        2 </v>
   <v type="int" >        2        2        2        6        6 </v>
   <v type="int" >        4        3        6        6        7 </v>
   <v type="int" >        4        2        3        6        6 </v>
   <v type="int" >        4        2        2        3        6 </v>
   <v type="int" >        4        3        6        7        7 </v>
   <v type="int" >        4        3        3        6        7 </v>
   <v type="int" >        4        2        3        3        6 </v>
   <v type="int" >        4        4        7        7        8 </v>
   <v type="int" >        4        3        4        7        7 </v>
   <v type="int" >        4        3        3        4        7 </v>
   <v type="int" >        4        4        7        8        8 </v>
   <v type="int" >        4        4        4        7        8 </v>
   <v type="int" >        4        3        4        4        7 </v>
   <v type="int" >        4        5        8        8        9 </v>
   <v type="int" >        4        4        5        8        8 </v>
   <v type="int" >        4        4        4        5        8 </v>
   <v type="int" >        4        5        8        9        9 </v>
   <v type="int" >        4        5        5        8        9 </v>
   <v type="int" >        4        4        5        5        8 </v>
   <v type="int" >        4        4        9        9       10 </v>
   <v type="int" >        4        4        5        9        9 </v>
   <v type="int" >        4        4        5        5        9 </v>
   <v type="int" >        4        4        9       10       10 </v>
   <v type="int" >        4        4        4        9       10 </v>
   <v type="int" >        4        4        4        5        9 </v>
   <v type="int" >        4        3       10       10       11 </v>
   <v type="int" >        4        3        4       10       10 </v>
   <v type="int" >        4        3        4        4       10 </v>
   <v type="int" >        4        3       10       11       11 </v>
   <v type="int" >        4        3        3       10       11 </v>
   <v type="int" >        4        3        3        4       10 </v>
   <v type="int" >        4        2       11       11       12 </v>
   <v type="int" >        4        2        3       11       11 </v>
   <v type="int" >        4        2        3        3       11 </v>
   <v type="int" >        4        2       11       12       12 </v>
   <v type="int" >        4        2        2       11       12 </v>
   <v type="int" >        4        2        2        3       11 </v>
   <v type="int" >        4        1        2       12       12 </v>
   <v type="int" >        4        1        2        2       12 </v>
   <v type="int" >        4        1        1        2       12 </v>
   <v type="int" >        4        7        7        7       13 </v>
   <v type="int" >        4        6        7        7        7 </v>
   <v type="int" >        2        6        6        7        7 </v>
   <v type="int" >        2        7        7       13       13 </v>
   <v type="int" >        4        8       13       13       14 </v>
   <v type="int" >        4        7        8       13       13 </v>
   <v type="int" >        4        7        7        8       13 </v>
   <v type="int" >        4        8       13       14       14 </v>
   <v type="int" >        4        8        8       13       14 </v>
   <v type="int" >        4        7        8        8       13 </v>
   <v type="int" >        4        9       14       14       15 </v>
   <v type="int" >        4        8        9       14       14 </v>
   <v type="int" >        4        8        8        9       14 </v>
   <v type="int" >        4        9       14       15       15 </v>
   <v type="int" >        4        9        9       14       15 </v>
   <v type="int" >        4        8        9        9       14 </v>
   <v type="int" >        4       10       15       15       16 </v>
   <v type="int" >        4        9       10       15       15 </v>
   <v type="int" >        4        9        9       10       15 </v>
   <v type="int" >        4       10       15       16       16 </v>
   <v type="int" >        4       10       10       15       16 </v>
   <v type="int" >        4        9       10       10       15 </v>
   <v type="int" >        4       11       16       16       17 </v>
   <v type="int" >        4       10       11       16       16 </v>
   <v type="int" >        4       10       10       11       16 </v>
   <v type="int" >        4       11       16       17       17 </v>
   <v type="int" >        4       11       11       16       17 </v>
   <v type="int" >        4       10       11       11       16 </v>
   <v type="int" >        4       11       12       17       17 </v>
   <v type="int" >        4       11       11       12       17 </v>
   <v type="int" >        4       11       12       12       17 </v>
   <v type="int" >        4       14       14       14       18 </v>
   <v type="int" >        4       13       14       14       14 </v>
   <v type="int" >        2       13       13       14       14 </v>
   <v type="int" >        2       14       14       18       18 </v>
   <v type="int" >        4       15       18       18       19 </v>
   <v type="int" >        4       14       15       18       18 </v>
   <v type="int" >        4       14       14       15       18 </v>
   <v type="int" >        4       15       18       19       19 </v>
   <v type="int" >        4       15       15       18       19 </v>
   <v type="int" >        4       14       15       15       18 </v>
   <v type="int" >        4       16       19       19       20 </v>
   <v type="int" >        4       15       16       19       19 </v>
   <v type="int" >        4       15       15       16       19 </v>
   <v type="int" >        4       16       19       20       20 </v>
   <v type="int" >        4       16       16       19       20 </v>
   <v type="int" >        4       15       16       16       19 </v>
   <v type="int" >        4       16       17       20       20 </v>
   <v type="int" >        4       16       16       17       20 </v>
   <v type="int" >        4       16       17       17       20 </v>
   <v type="int" >        4       19       19       19       21 </v>
   <v type="int" >        4       18       19       19       19 </v>
   <v type="int" >        2       18       18       19       19 </v>
   <v type="int" >        2       19       19       21       21 </v>
   <v type="int" >        4       19       20       21       21 </v>
   <v type="int" >        4       19       19       20       21 </v>
   <v type="int" >        4       19       20       20       21 </v>
  </varray>
  <i name="volumeweight">      0.00260417 </i>
 </kpoints>
 <parameters>
  <separator name="general" >
   <i type="string" name="SYSTEM">NAME</i>
   <i type="logical" name="LCOMPAT"> F  </i>
  </separator>
  <separator name="electronic" >
   <i type="string" name="PREC">medium</i>
   <i name="ENMAX">    500.00000000</i>
   <i name="ENAUG">    644.87300000</i>
   <i name="EDIFF">      0.00010000</i>
   <i type="int" name="IALGO">    38</i>
   <i type="int" name="IWAVPR">    11</i>
   <i type="int" name="NBANDS">    24</i>
   <i name="NELECT">     32.00000000</i>
   <i type="int" name="TURBO">     0</i>
   <i type="int" name="IRESTART">     0</i>
   <i type="int" name="NREBOOT">     0</i>
   <i type="int" name="NMIN">     0</i>
   <i name="EREF">      0.00000000</i>
   <separator name="electronic smearing" >
    <i type="int" name="ISMEAR">    -5</i>
    <i name="SIGMA">      0.10000000</i>
    <i name="KSPACING">      0.50000000</i>
    <i type="logical" name="KGAMMA"> T  </i>
   </separator>
   <separator name="electronic projectors" >
    <i type="logical" name="LREAL"> F  </i>
    <v name="ROPT">      0.00000000</v>
    <i type="int" name="LMAXPAW">  -100</i>
    <i type="int" name="LMAXMIX">     2</i>
   </separator>
   <separator name="electronic startup" >
    <i type="int" name="ISTART">     0</i>
    <i type="int" name="ICHARG">     2</i>
    <i type="int" name="INIWAV">     1</i>
   </separator>
   <separator name="electronic spin" >
    <i type="int" name="ISPIN">     1</i>
    <i type="logical" name="LNONCOLLINEAR"> F  </i>
    <v name="MAGMOM">      1.00000000      1.00000000      1.00000000      1.00000000      1.00000000      1.00000000      1.00000000      1.00000000</v>
    <i name="NUPDOWN">     -1.00000000</i>
    <i type="logical" name="LSORBIT"> F  </i>
    <v name="SAXIS">      0.00000000      0.00000000      1.00000000</v>
    <i type="logical" name="LSPIRAL"> F  </i>
    <v name="QSPIRAL">      0.00000000      0.00000000      0.00000000</v>
    <i type="logical" name="LZEROZ"> F  </i>
   </separator>
   <separator name="electronic exchange-correlation" >
    <i type="logical" name="LASPH"> F  </i>
    <i type="logical" name="LMETAGGA"> F  </i>
   </separator>
   <separator name="electronic convergence" >
    <i type="int" name="NELM">   100</i>
    <i type="int" name="NELMDL">    -5</i>
    <i type="int" name="NELMIN">     5</i>
    <i name="ENINI">    500.00000000</i>
    <separator name="electronic convergence detail" >
     <i type="logical" name="LDIAG"> T  </i>
     <i type="logical" name="LSUBROT"> T  </i>
     <i name="WEIMIN">      0.00100000</i>
     <i name="EBREAK">      0.00000119</i>
     <i name="DEPER">      0.30000000</i>
     <i type="int" name="NRMM">     4</i>
     <i name="TIME">      0.40000000</i>
    </separator>
   </separator>
   <separator name="electronic mixer" >
    <i name="AMIX">      0.40000000</i>
    <i name="BMIX">      1.00000000</i>
    <i name="AMIN">      0.10000000</i>
    <i name="AMIX_MAG">      1.60000000</i>
    <i name="BMIX_MAG">      1.00000000</i>
    <separator name="electronic mixer details" >
     <i type="int" name="IMIX">     4</i>
     <i type="int" name="MAXMIX">   -45</i>
     <i name="WC">    100.00000000</i>
     <i type="int" name="INIMIX">     1</i>
     <i type="int" name="MIXPRE">     1</i>
     <i type="int" name="MREMOVE">     5</i>
    </separator>
   </separator>
   <separator name="electronic dipolcorrection" >
    <i type="logical" name="LDIPOL"> F  </i>
    <i type="logical" name="LMONO"> F  </i>
    <i type="int" name="IDIPOL">     0</i>
    <i name="EPSILON">      1.00000000</i>
    <v name="DIPOL">   -100.00000000   -100.00000000   -100.00000000</v>
    <i name="EFIELD">      0.00000000</i>
   </separator>
  </separator>
  <separator name="grids" >
   <i type="int" name="NGX">    28</i>
   <i type="int" name="NGY">    28</i>
   <i type="int" name="NGZ">    14</i>
   <i type="int" name="NGXF">    40</i>
   <i type="int" name="NGYF">    40</i>
   <i type="int" name="NGZF">    20</i>
   <i type="logical" name="ADDGRID"> F  </i>
  </separator>
  <separator name="ionic" >
   <i type="int" name="NSW">   500</i>
   <i type="int" name="IBRION">     2</i>
   <i type="int" name="ISIF">     3</i>
   <i name="PSTRESS">      0.00000000</i>
   <i name="EDIFFG">     -0.01000000</i>
   <i type="int" name="NFREE">     1</i>
   <i name="POTIM">      0.50000000</i>
   <i name="SMASS">     -3.00000000</i>
  </separator>
  <separator name="ionic md" >
   <i name="TEBEG">      0.00010000</i>
   <i name="TEEND">      0.00010000</i>
   <i type="int" name="NBLOCK">     1</i>
   <i type="int" name="KBLOCK">   500</i>
   <i type="int" name="NPACO">   256</i>
   <i name="APACO">     16.00000000</i>
  </separator>
  <separator name="symmetry" >
   <i type="int" name="ISYM">     2</i>
   <i name="SYMPREC">      0.00001000</i>
  </separator>
  <separator name="dos" >
   <i type="logical" name="LORBIT"> F  </i>
   <v name="RWIGS">     -1.00000000</v>
   <i type="int" name="NEDOS">   301</i>
   <i name="EMIN">     10.00000000</i>
   <i name="EMAX">    -10.00000000</i>
   <i name="EFERMI">      0.00000000</i>
  </separator>
  <separator name="writing" >
   <i type="int" name="NWRITE">     2</i>
   <i type="logical" name="LWAVE"> T  </i>
   <i type="logical" name="LCHARG"> T  </i>
   <i type="logical" name="LPARD"> F  </i>
   <i type="logical" name="LVTOT"> F  </i>
   <i type="logical" name="LVHAR"> F  </i>
   <i type="logical" name="LELF"> F  </i>
   <i type="logical" name="LOPTICS"> F  </i>
   <v name="STM">      0.00000000      0.00000000      0.00000000      0.00000000      0.00000000</v>
  </separator>
  <separator name="performance" >
   <i type="int" name="NPAR">    12</i>
   <i type="int" name="NSIM">     4</i>
   <i type="int" name="NBLK">    -1</i>
   <i type="logical" name="LPLANE"> T  </i>
   <i type="logical" name="LSCALAPACK"> F  </i>
   <i type="logical" name="LSCAAWARE"> F  </i>
   <i type="logical" name="LSCALU"> F  </i>
   <i type="logical" name="LASYNC"> F  </i>
   <i type="logical" name="LORBITALREAL"> F  </i>
  </separator>
  <separator name="miscellaneous" >
   <i type="int" name="IDIOT">     3</i>
   <i type="logical" name="LMUSIC"> F  </i>
   <v name="POMASS">     12.01100000</v>
   <v name="DARWINR">      0.00000000</v>
   <v name="DARWINV">      1.00000000</v>
   <i type="logical" name="LCORR"> T  </i>
  </separator>
  <i type="logical" name="GGA_COMPAT"> T  </i>
  <i type="logical" name="LBERRY"> F  </i>
  <i type="int" name="ICORELEVEL">     0</i>
  <i type="logical" name="LDAU"> F  </i>
  <i type="int" name="I_CONSTRAINED_M">     0</i>
  <separator name="electronic exchange-correlation" >
   <i type="string" name="GGA">--</i>
   <i type="int" name="VOSKOWN">     0</i>
   <i type="logical" name="LHFCALC"> F  </i>
   <i type="string" name="PRECFOCK"></i>
   <i type="logical" name="LHFONE"> F  </i>
   <i type="logical" name="LRHFCALC"> F  </i>
   <i type="logical" name="LTHOMAS"> F  </i>
   <i type="logical" name="LMODELHF"> F  </i>
   <i name="ENCUT4O">     -1.00000000</i>
   <i type="int" name="EXXOEP">     0</i>
   <i type="int" name="FOURORBIT">     0</i>
   <i name="AEXX">      0.00000000</i>
   <i name="HFALPHA">      0.00000000</i>
   <i name="ALDAX">      1.00000000</i>
   <i name="AGGAX">      1.00000000</i>
   <i name="ALDAC">      1.00000000</i>
   <i name="AGGAC">      1.00000000</i>
   <i type="int" name="NKREDX">     1</i>
   <i type="int" name="NKREDY">     1</i>
   <i type="int" name="NKREDZ">     1</i>
   <i type="logical" name="SHIFTRED"> F  </i>
   <i type="logical" name="ODDONLY"> F  </i>
   <i type="logical" name="EVENONLY"> F  </i>
   <i type="int" name="LMAXFOCK">     0</i>
   <i type="int" name="NMAXFOCKAE">     0</i>
   <i type="logical" name="LFOCKAEDFT"> F  </i>
   <i name="HFSCREEN">      0.00000000</i>
   <i name="HFSCREENC">      0.00000000</i>
  </separator>
  <separator name="model GW" >
   <i type="int" name="MODEL_GW">     0</i>
   <i name="MODEL_EPS0">      3.86773961</i>
   <i name="MODEL_ALPHA">      1.00000000</i>
  </separator>
  <separator name="linear response parameters" >
   <i type="logical" name="LEPSILON"> F  </i>
   <i type="logical" name="LRPA"> F  </i>
   <i type="logical" name="LNABLA"> F  </i>
   <i type="logical" name="LVEL"> F  </i>
   <i type="int" name="KINTER">     0</i>
   <i name="CSHIFT">      0.10000000</i>
   <i name="OMEGAMAX">     -1.00000000</i>
  </separator>
  <separator name="orbital magnetization" >
   <i type="logical" name="ORBITALMAG"> F  </i>
   <i type="logical" name="LMAGBLOCH"> F  </i>
   <i type="logical" name="LCHIMAG"> F  </i>
   <i type="logical" name="LGAUGE"> T  </i>
   <i type="int" name="MAGATOM">     0</i>
   <v name="MAGDIPOL">      0.00000000      0.00000000      0.00000000</v>
   <v name="AVECCONST">      0.00000000      0.00000000      0.00000000</v>
  </separator>
  <separator name="response functions" >
   <i type="logical" name="LRPA"> T  </i>
   <i type="logical" name="LTCTE"> F  </i>
   <i type="logical" name="LTETE"> F  </i>
   <i type="logical" name="L2ORDER"> F  </i>
   <i type="logical" name="LUSEW"> F  </i>
   <i name="ENCUTGW">     -2.00000000</i>
   <i name="ENCUTGWSOFT">     -2.00000000</i>
   <i name="ENCUTLF">     -1.00000000</i>
   <i type="int" name="LMAXMP2">    -1</i>
   <i name="SCISSOR">      0.00000000</i>
   <i type="int" name="NOMEGA">     0</i>
   <i type="int" name="NOMEGAR">     0</i>
   <i type="int" name="NBANDSGW">    -1</i>
   <i type="int" name="NBANDSO">    -1</i>
   <i type="int" name="NBANDSV">    -1</i>
   <i type="int" name="NELM">   100</i>
   <i type="int" name="DIM">     3</i>
   <i type="int" name="ANTIRES">     0</i>
   <i name="OMEGAMAX">    -30.00000000</i>
   <i name="OMEGATL">   -200.00000000</i>
   <i type="int" name="OMEGAGRID">     0</i>
   <i name="CSHIFT">     -0.10000000</i>
   <i type="logical" name="SELFENERGY"> F  </i>
   <i type="logical" name="LSPECTRAL"> F  </i>
   <i type="logical" name="ODDONLYGW"> F  </i>
   <i type="logical" name="EVENONLYGW"> F  </i>
   <i type="int" name="NKREDLFX">     1</i>
   <i type="int" name="NKREDLFY">     1</i>
   <i type="int" name="NKREDLFZ">     1</i>
   <i type="int" name="MAXMEM">  1800</i>
   <i type="int" name="TELESCOPE">     0</i>
  </separator>
 </parameters>
 <atominfo>
  <atoms>       8 </atoms>
  <types>       1 </types>
  <array name="atoms" >
   <dimension dim="1">ion</dimension>
   <field type="string">element</field>
   <field type="int">atomtype</field>
   <set>
    <rc><c>C </c><c>   1</c></rc>
    <rc><c>C </c><c>   1</c></rc>
    <rc><c>C </c><c>   1</c></rc>
    <rc><c>C </c><c>   1</c></rc>
    <rc><c>C </c><c>   1</c></rc>
    <rc><c>C </c><c>   1</c></rc>
    <rc><c>C </c><c>   1</c></rc>
    <rc><c>C </c><c>   1</c></rc>
   </set>
  </array>
  <array name="atomtypes" >
   <dimension dim="1">type</dimension>
   <field type="int">atomspertype</field>
   <field type="string">element</field>
   <field>mass</field>
   <field>valence</field>
   <field type="string">pseudopotential</field>
   <set>
    <rc><c>   8</c><c>C </c><c>     12.01100000</c><c>      4.00000000</c><c> PAW_PBE C 08Apr2002                    </c></rc>
   </set>
  </array>
 </atominfo>
 <structure name="initialpos" >
  <crystal>
   <varray name="basis" >
    <v>       4.92000008       0.00000000       0.00000000 </v>
    <v>      -2.46000004       4.26084505       0.00000000 </v>
    <v>       0.00000000       0.00000000       2.46000004 </v>
   </varray>
   <i name="volume">     51.56986144 </i>
   <varray name="rec_basis" >
    <v>       0.20325203       0.11734761       0.00000000 </v>
    <v>       0.00000000       0.23469523       0.00000000 </v>
    <v>       0.00000000       0.00000000       0.40650406 </v>
   </varray>
  </crystal>
  <varray name="positions" >
   <v>       0.00000000       0.00000000       0.07317000 </v>
   <v>       0.33333001       0.16666999       0.07317000 </v>
   <v>       0.50000000       0.00000000       0.07317000 </v>
   <v>       0.83332998       0.16666999       0.07317000 </v>
   <v>       0.00000000       0.50000000       0.07317000 </v>
   <v>       0.33333001       0.66667002       0.07317000 </v>
   <v>       0.50000000       0.50000000       0.07317000 </v>
   <v>       0.83332998       0.66667002       0.07317000 </v>
  </varray>
 </structure>
 <calculation>
  <scstep>
   <time name="dav">    0.52    0.52</time>
   <time name="total">    0.53    0.54</time>
   <energy>
    <i name="alphaZ">    101.11973060 </i>
    <i name="ewald">  -1248.61899323 </i>
    <i name="hartreedc">   -121.24107551 </i>
    <i name="XCdc">    113.20729372 </i>
    <i name="pawpsdc">    302.65154477 </i>
    <i name="pawaedc">   -311.85538214 </i>
    <i name="eentropy">      0.00000000 </i>
    <i name="bandstr">     84.52131383 </i>
    <i name="atom">   1177.18737338 </i>
    <i name="e_fr_energy">     96.97180543 </i>
    <i name="e_wo_entrp">     96.97180543 </i>
    <i name="e_0_energy">     96.97180543 </i>
   </energy>
  </scstep>
  <scstep>
   <time name="dav">    0.67    0.67</time>
   <time name="total">    0.67    0.68</time>
   <energy>
    <i name="e_fr_energy">    -55.79520653 </i>
    <i name="e_wo_entrp">    -55.79520653 </i>
    <i name="e_0_energy">    -55.79520653 </i>
   </energy>
  </scstep>
  <scstep>
   <time name="dav">    0.71    0.71</time>
   <time name="total">    0.71    0.73</time>
   <energy>
    <i name="e_fr_energy">    -60.46911482 </i>
    <i name="e_wo_entrp">    -60.46911482 </i>
    <i name="e_0_energy">    -60.46911482 </i>
   </energy>
  </scstep>
  <scstep>
   <time name="dav">    0.58    0.58</time>
   <time name="total">    0.58    0.59</time>
   <energy>
    <i name="e_fr_energy">    -60.50010121 </i>
    <i name="e_wo_entrp">    -60.50010121 </i>
    <i name="e_0_energy">    -60.50010121 </i>
   </energy>
  </scstep>
  <scstep>
   <time name="dav">    0.43    0.43</time>
   <time name="total">    0.46    0.48</time>
   <energy>
    <i name="e_fr_energy">    -60.50054968 </i>
    <i name="e_wo_entrp">    -60.50054968 </i>
    <i name="e_0_energy">    -60.50054968 </i>
   </energy>
  </scstep>
  <scstep>
   <time name="dav">    0.29    0.29</time>
   <time name="total">    0.33    0.34</time>
   <energy>
    <i name="e_fr_energy">    -56.42971491 </i>
    <i name="e_wo_entrp">    -56.42971491 </i>
    <i name="e_0_energy">    -56.42971491 </i>
   </energy>
  </scstep>
  <scstep>
   <time name="dav">    0.32    0.32</time>
   <time name="total">    0.35    0.37</time>
   <energy>
    <i name="e_fr_energy">    -55.37366110 </i>
    <i name="e_wo_entrp">    -55.37366110 </i>
    <i name="e_0_energy">    -55.37366110 </i>
   </energy>
  </scstep>
  <scstep>
   <time name="dav">    0.41    0.41</time>
   <time name="total">    0.44    0.45</time>
   <energy>
    <i name="e_fr_energy">    -55.41487029 </i>
    <i name="e_wo_entrp">    -55.41487029 </i>
    <i name="e_0_energy">    -55.41487029 </i>
   </energy>
  </scstep>
  <scstep>
   <time name="dav">    0.39    0.39</time>
   <time name="total">    0.43    0.44</time>
   <energy>
    <i name="e_fr_energy">    -55.41531900 </i>
    <i name="e_wo_entrp">    -55.41531900 </i>
    <i name="e_0_energy">    -55.41531900 </i>
   </energy>
  </scstep>
  <scstep>
   <time name="dav">    0.36    0.36</time>
   <time name="total">    0.40    0.41</time>
   <energy>
    <i name="e_fr_energy">    -55.41544135 </i>
    <i name="e_wo_entrp">    -55.41544135 </i>
    <i name="e_0_energy">    -55.41544135 </i>
   </energy>
  </scstep>
  <scstep>
   <time name="dav">    0.28    0.28</time>
   <time name="total">    0.29    0.29</time>
   <energy>
    <i name="alphaZ">    101.11973060 </i>
    <i name="ewald">  -1248.61899323 </i>
    <i name="hartreedc">   -180.48375501 </i>
    <i name="XCdc">    118.14143449 </i>
    <i name="pawpsdc">    592.34959987 </i>
    <i name="pawaedc">   -603.20835430 </i>
    <i name="eentropy">      0.00000000 </i>
    <i name="bandstr">    -11.90247810 </i>
    <i name="atom">   1177.18737338 </i>
    <i name="e_fr_energy">    -55.41544229 </i>
    <i name="e_wo_entrp">    -55.41544229 </i>
    <i name="e_0_energy">    -55.41544229 </i>
   </energy>
  </scstep>
  <v type="logical" name="LVDW"> F  </v>
  <structure>
   <crystal>
    <varray name="basis" >
     <v>       4.92000008       0.00000000       0.00000000 </v>
     <v>      -2.46000004       4.26084505       0.00000000 </v>
     <v>       0.00000000       0.00000000       2.46000004 </v>
    </varray>
    <i name="volume">     51.56986144 </i>
    <varray name="rec_basis" >
     <v>       0.20325203       0.11734761       0.00000000 </v>
     <v>       0.00000000       0.23469523       0.00000000 </v>
     <v>       0.00000000       0.00000000       0.40650406 </v>
    </varray>
   </crystal>
   <varray name="positions" >
    <v>       0.00000000       0.00000000       0.07317000 </v>
    <v>       0.33333001       0.16666999       0.07317000 </v>
    <v>       0.50000000       0.00000000       0.07317000 </v>
    <v>       0.83332998       0.16666999       0.07317000 </v>
    <v>       0.00000000       0.50000000       0.07317000 </v>
    <v>       0.33333001       0.66667002       0.07317000 </v>
    <v>       0.50000000       0.50000000       0.07317000 </v>
    <v>       0.83332998       0.66667002       0.07317000 </v>
   </varray>
  </structure>
  <varray name="forces" >
   <v>      -0.00110698       0.00063911       0.00000000 </v>
   <v>       0.00110698      -0.00063911       0.00000000 </v>
   <v>      -0.00110698       0.00063911       0.00000000 </v>
   <v>       0.00110698      -0.00063911      -0.00000000 </v>
   <v>      -0.00110698       0.00063911      -0.00000000 </v>
   <v>       0.00110698      -0.00063911      -0.00000000 </v>
   <v>      -0.00110698       0.00063911      -0.00000000 </v>
   <v>       0.00110698      -0.00063911      -0.00000000 </v>
  </varray>
  <varray name="stress" >
   <v>     109.95593897      -0.00124889       0.00000000 </v>
   <v>      -0.00124889     109.95449687       0.00000000 </v>
   <v>       0.00000000       0.00000000    1860.98228763 </v>
  </varray>
  <energy>
   <i name="e_fr_energy">    -55.41544229 </i>
   <i name="e_wo_entrp">    -55.41544229 </i>
   <i name="e_0_energy">      0.00000000 </i>
  </energy>
  <time name="totalsc">    5.52    5.68</time>
 </calculation>
 <calculation>
  <scstep>
   <time name="dav">    0.29    0.29</time>
   <time name="total">    0.32    0.32</time>
   <energy>
    <i name="alphaZ">     71.21404906 </i>
    <i name="ewald">   -928.76952763 </i>
    <i name="hartreedc">   -204.67269089 </i>
    <i name="XCdc">    105.92114498 </i>
    <i name="pawpsdc">    592.36002631 </i>
    <i name="pawaedc">   -603.21889668 </i>
    <i name="eentropy">      0.00000000 </i>
    <i name="bandstr">   -305.61144180 </i>
    <i name="atom">   1177.18737338 </i>
    <i name="e_fr_energy">    -95.58996327 </i>
    <i name="e_wo_entrp">    -95.58996327 </i>
    <i name="e_0_energy">    -95.58996327 </i>
   </energy>
  </scstep>
  <scstep>
   <time name="dav">    0.33    0.33</time>
   <time name="total">    0.36    0.37</time>
   <energy>
    <i name="e_fr_energy">    -77.79038782 </i>
    <i name="e_wo_entrp">    -77.79038782 </i>
    <i name="e_0_energy">    -77.79038782 </i>
   </energy>
  </scstep>
  <scstep>
   <time name="dav">    0.40    0.40</time>
   <time name="total">    0.43    0.44</time>
   <energy>
    <i name="e_fr_energy">    -67.61095695 </i>
    <i name="e_wo_entrp">    -67.61095695 </i>
    <i name="e_0_energy">    -67.61095695 </i>
   </energy>
  </scstep>
  <scstep>
   <time name="dav">    0.32    0.32</time>
   <time name="total">    0.35    0.37</time>
   <energy>
    <i name="e_fr_energy">    -67.43323936 </i>
    <i name="e_wo_entrp">    -67.43323936 </i>
    <i name="e_0_energy">    -67.43323936 </i>
   </energy>
  </scstep>
  <scstep>
   <time name="dav">    0.34    0.34</time>
   <time name="total">    0.37    0.39</time>
   <energy>
    <i name="e_fr_energy">    -67.45821585 </i>
    <i name="e_wo_entrp">    -67.45821585 </i>
    <i name="e_0_energy">    -67.45821585 </i>
   </energy>
  </scstep>
  <scstep>
   <time name="dav">    0.38    0.39</time>
   <time name="total">    0.42    0.43</time>
   <energy>
    <i name="e_fr_energy">    -67.45482799 </i>
    <i name="e_wo_entrp">    -67.45482799 </i>
    <i name="e_0_energy">    -67.45482799 </i>
   </energy>
  </scstep>
  <scstep>
   <time name="dav">    0.34    0.34</time>
   <time name="total">    0.38    0.39</time>
   <energy>
    <i name="e_fr_energy">    -67.45401653 </i>
    <i name="e_wo_entrp">    -67.45401653 </i>
    <i name="e_0_energy">    -67.45401653 </i>
   </energy>
  </scstep>
  <scstep>
   <time name="dav">    0.31    0.31</time>
   <time name="total">    0.32    0.33</time>
   <energy>
    <i name="alphaZ">     71.21404906 </i>
    <i name="ewald">   -928.76952763 </i>
    <i name="hartreedc">   -366.45541035 </i>
    <i name="XCdc">    114.98902715 </i>
    <i name="pawpsdc">    542.05122173 </i>
    <i name="pawaedc">   -552.20739779 </i>
    <i name="eentropy">      0.00000000 </i>
    <i name="bandstr">   -125.46331827 </i>
    <i name="atom">   1177.18737338 </i>
    <i name="e_fr_energy">    -67.45398272 </i>
    <i name="e_wo_entrp">    -67.45398272 </i>
    <i name="e_0_energy">    -67.45398272 </i>
   </energy>
  </scstep>
  <structure>
   <crystal>
    <varray name="basis" >
     <v>       5.02500518      -0.00000119       0.00000000 </v>
     <v>      -2.51250362       4.35178154       0.00000000 </v>
     <v>       0.00000000       0.00000000       3.34859519 </v>
    </varray>
    <i name="volume">     73.22614800 </i>
    <varray name="rec_basis" >
     <v>       0.19900480       0.11489554      -0.00000000 </v>
     <v>       0.00000005       0.22979098      -0.00000000 </v>
     <v>      -0.00000000      -0.00000000       0.29863269 </v>
    </varray>
   </crystal>
   <varray name="positions" >
    <v>      -0.00000724       0.00000724       0.07317000 </v>
    <v>       0.33333724       0.16666276       0.07317000 </v>
    <v>       0.49999276       0.00000724       0.07317000 </v>
    <v>       0.83333721       0.16666276       0.07317000 </v>
    <v>      -0.00000724       0.50000724       0.07317000 </v>
    <v>       0.33333724       0.66666279       0.07317000 </v>
    <v>       0.49999276       0.50000724       0.07317000 </v>
    <v>       0.83333721       0.66666279       0.07317000 </v>
   </varray>
  </structure>
  <varray name="forces" >
   <v>       0.00362554      -0.00209321      -0.00000000 </v>
   <v>      -0.00362554       0.00209321       0.00000000 </v>
   <v>       0.00362554      -0.00209321      -0.00000000 </v>
   <v>      -0.00362554       0.00209321       0.00000000 </v>
   <v>       0.00362554      -0.00209321      -0.00000000 </v>
   <v>      -0.00362554       0.00209321       0.00000000 </v>
   <v>       0.00362554      -0.00209321      -0.00000000 </v>
   <v>      -0.00362554       0.00209321       0.00000000 </v>
  </varray>
  <varray name="stress" >
   <v>    -267.95869155      -0.05820349       0.00000000 </v>
   <v>      -0.05820349    -268.02589914       0.00000000 </v>
   <v>      -0.00000000       0.00000000     442.65658075 </v>
  </varray>
  <energy>
   <i name="e_fr_energy">    -67.45398272 </i>
   <i name="e_wo_entrp">    -67.45398272 </i>
   <i name="e_0_energy">      0.00000000 </i>
  </energy>
  <time name="totalsc">    3.25    3.39</time>
 </calculation>
 <calculation>
  <scstep>
   <time name="dav">    0.29    0.29</time>
   <time name="total">    0.32    0.33</time>
   <energy>
    <i name="alphaZ">     62.39845959 </i>
    <i name="ewald">   -791.89019618 </i>
    <i name="hartreedc">   -392.47980630 </i>
    <i name="XCdc">    110.34571131 </i>
    <i name="pawpsdc">    541.94787958 </i>
    <i name="pawaedc">   -552.10146342 </i>
    <i name="eentropy">      0.00000000 </i>
    <i name="bandstr">   -227.10173030 </i>
    <i name="atom">   1177.18737338 </i>
    <i name="e_fr_energy">    -71.69377233 </i>
    <i name="e_wo_entrp">    -71.69377233 </i>
    <i name="e_0_energy">    -71.69377233 </i>
   </energy>
  </scstep>
  <scstep>
   <time name="dav">    0.29    0.29</time>
   <time name="total">    0.32    0.33</time>
   <energy>
    <i name="e_fr_energy">    -69.65709944 </i>
    <i name="e_wo_entrp">    -69.65709944 </i>
    <i name="e_0_energy">    -69.65709944 </i>
   </energy>
  </scstep>
  <scstep>
   <time name="dav">    0.33    0.33</time>
   <time name="total">    0.36    0.38</time>
   <energy>
    <i name="e_fr_energy">    -68.55299510 </i>
    <i name="e_wo_entrp">    -68.55299510 </i>
    <i name="e_0_energy">    -68.55299510 </i>
   </energy>
  </scstep>
  <scstep>
   <time name="dav">    0.29    0.30</time>
   <time name="total">    0.33    0.33</time>
   <energy>
    <i name="e_fr_energy">    -68.54704994 </i>
    <i name="e_wo_entrp">    -68.54704994 </i>
    <i name="e_0_energy">    -68.54704994 </i>
   </energy>
  </scstep>
  <scstep>
   <time name="dav">    0.33    0.33</time>
   <time name="total">    0.36    0.38</time>
   <energy>
    <i name="e_fr_energy">    -68.53907717 </i>
    <i name="e_wo_entrp">    -68.53907717 </i>
    <i name="e_0_energy">    -68.53907717 </i>
   </energy>
  </scstep>
  <scstep>
   <time name="dav">    0.39    0.39</time>
   <time name="total">    0.43    0.44</time>
   <energy>
    <i name="e_fr_energy">    -68.53817571 </i>
    <i name="e_wo_entrp">    -68.53817571 </i>
    <i name="e_0_energy">    -68.53817571 </i>
   </energy>
  </scstep>
  <scstep>
   <time name="dav">    0.32    0.32</time>
   <time name="total">    0.35    0.37</time>
   <energy>
    <i name="e_fr_energy">    -68.53795865 </i>
    <i name="e_wo_entrp">    -68.53795865 </i>
    <i name="e_0_energy">    -68.53795865 </i>
   </energy>
  </scstep>
  <scstep>
   <time name="dav">    0.24    0.24</time>
   <time name="total">    0.25    0.26</time>
   <energy>
    <i name="alphaZ">     62.39845959 </i>
    <i name="ewald">   -791.89019618 </i>
    <i name="hartreedc">   -458.26733718 </i>
    <i name="XCdc">    113.82740404 </i>
    <i name="pawpsdc">    522.31745576 </i>
    <i name="pawaedc">   -532.13401531 </i>
    <i name="eentropy">      0.00000000 </i>
    <i name="bandstr">   -161.97710479 </i>
    <i name="atom">   1177.18737338 </i>
    <i name="e_fr_energy">    -68.53796069 </i>
    <i name="e_wo_entrp">    -68.53796069 </i>
    <i name="e_0_energy">    -68.53796069 </i>
   </energy>
  </scstep>
  <structure>
   <crystal>
    <varray name="basis" >
     <v>       5.07249346      -0.00000173       0.00000000 </v>
     <v>      -2.53624823       4.39290733       0.00000000 </v>
     <v>       0.00000000       0.00000000       3.75046008 </v>
    </varray>
    <i name="volume">     83.57146203 </i>
    <varray name="rec_basis" >
     <v>       0.19714174       0.11381993      -0.00000000 </v>
     <v>       0.00000008       0.22763972      -0.00000000 </v>
     <v>      -0.00000000      -0.00000000       0.26663395 </v>
    </varray>
   </crystal>
   <varray name="positions" >
    <v>      -0.00001044       0.00001044       0.07317000 </v>
    <v>       0.33334045       0.16665955       0.07317000 </v>
    <v>       0.49998956       0.00001044       0.07317000 </v>
    <v>       0.83334042       0.16665955       0.07317000 </v>
    <v>      -0.00001044       0.50001044       0.07317000 </v>
    <v>       0.33334045       0.66665958       0.07317000 </v>
    <v>       0.49998956       0.50001044       0.07317000 </v>
    <v>       0.83334042       0.66665958       0.07317000 </v>
   </varray>
  </structure>
  <varray name="forces" >
   <v>       0.00560782      -0.00323768       0.00000000 </v>
   <v>      -0.00560782       0.00323768       0.00000000 </v>
   <v>       0.00560782      -0.00323768       0.00000000 </v>
   <v>      -0.00560782       0.00323768       0.00000000 </v>
   <v>       0.00560782      -0.00323768       0.00000000 </v>
   <v>      -0.00560782       0.00323768       0.00000000 </v>
   <v>       0.00560782      -0.00323768       0.00000000 </v>
   <v>      -0.00560782       0.00323768       0.00000000 </v>
  </varray>
  <varray name="stress" >
   <v>    -340.32801820      -0.06051785      -0.00000000 </v>
   <v>      -0.06051785    -340.39789819       0.00000000 </v>
   <v>      -0.00000000       0.00000000      66.14994330 </v>
  </varray>
  <energy>
   <i name="e_fr_energy">    -68.53796069 </i>
   <i name="e_wo_entrp">    -68.53796069 </i>
   <i name="e_0_energy">      0.00000000 </i>
  </energy>
  <time name="totalsc">    3.03    3.16</time>
 </calculation>
 <calculation>
  <scstep>
   <time name="dav">    0.29    0.29</time>
   <time name="total">    0.32    0.33</time>
   <energy>
    <i name="alphaZ">     73.19344371 </i>
    <i name="ewald">   -567.46831832 </i>
    <i name="hartreedc">   -608.51360754 </i>
    <i name="XCdc">    119.80876948 </i>
    <i name="pawpsdc">    522.28157398 </i>
    <i name="pawaedc">   -532.09660884 </i>
    <i name="eentropy">      0.00000000 </i>
    <i name="bandstr">   -253.67053147 </i>
    <i name="atom">   1177.18737338 </i>
    <i name="e_fr_energy">    -69.27790561 </i>
    <i name="e_wo_entrp">    -69.27790561 </i>
    <i name="e_0_energy">    -69.27790561 </i>
   </energy>
  </scstep>
  <scstep>
   <time name="dav">    0.38    0.38</time>
   <time name="total">    0.42    0.42</time>
   <energy>
    <i name="e_fr_energy">    -66.14581769 </i>
    <i name="e_wo_entrp">    -66.14581769 </i>
    <i name="e_0_energy">    -66.14581769 </i>
   </energy>
  </scstep>
  <scstep>
   <time name="dav">    0.34    0.34</time>
   <time name="total">    0.37    0.39</time>
   <energy>
    <i name="e_fr_energy">    -64.11123328 </i>
    <i name="e_wo_entrp">    -64.11123328 </i>
    <i name="e_0_energy">    -64.11123328 </i>
   </energy>
  </scstep>
  <scstep>
   <time name="dav">    0.30    0.30</time>
   <time name="total">    0.33    0.35</time>
   <energy>
    <i name="e_fr_energy">    -64.09958184 </i>
    <i name="e_wo_entrp">    -64.09958184 </i>
    <i name="e_0_energy">    -64.09958184 </i>
   </energy>
  </scstep>
  <scstep>
   <time name="dav">    0.31    0.31</time>
   <time name="total">    0.34    0.35</time>
   <energy>
    <i name="e_fr_energy">    -64.09738921 </i>
    <i name="e_wo_entrp">    -64.09738921 </i>
    <i name="e_0_energy">    -64.09738921 </i>
   </energy>
  </scstep>
  <scstep>
   <time name="dav">    0.40    0.40</time>
   <time name="total">    0.44    0.45</time>
   <energy>
    <i name="e_fr_energy">    -64.09598171 </i>
    <i name="e_wo_entrp">    -64.09598171 </i>
    <i name="e_0_energy">    -64.09598171 </i>
   </energy>
  </scstep>
  <scstep>
   <time name="dav">    0.31    0.31</time>
   <time name="total">    0.34    0.36</time>
   <energy>
    <i name="e_fr_energy">    -64.09559219 </i>
    <i name="e_wo_entrp">    -64.09559219 </i>
    <i name="e_0_energy">    -64.09559219 </i>
   </energy>
  </scstep>
  <scstep>
   <time name="dav">    0.26    0.26</time>
   <time name="total">    0.27    0.28</time>
   <energy>
    <i name="alphaZ">     73.19344371 </i>
    <i name="ewald">   -567.46831832 </i>
    <i name="hartreedc">   -694.45361159 </i>
    <i name="XCdc">    122.64339535 </i>
    <i name="pawpsdc">    749.63634270 </i>
    <i name="pawaedc">   -760.35784873 </i>
    <i name="eentropy">      0.00000000 </i>
    <i name="bandstr">   -164.47636304 </i>
    <i name="atom">   1177.18737338 </i>
    <i name="e_fr_energy">    -64.09558654 </i>
    <i name="e_wo_entrp">    -64.09558654 </i>
    <i name="e_0_energy">    -64.09558654 </i>
   </energy>
  </scstep>
  <structure>
   <crystal>
    <varray name="basis" >
     <v>       4.49870756      -0.00010704      -0.00000000 </v>
     <v>      -2.24944648       3.89594151       0.00000000 </v>
     <v>      -0.00000000       0.00000000       4.06504598 </v>
    </varray>
    <i name="volume">     71.24586891 </i>
    <varray name="rec_basis" >
     <v>       0.22228912       0.12834573      -0.00000000 </v>
     <v>       0.00000611       0.25668089      -0.00000000 </v>
     <v>       0.00000000      -0.00000000       0.24599968 </v>
    </varray>
   </crystal>
   <varray name="positions" >
    <v>       0.00002714      -0.00002714       0.07317000 </v>
    <v>       0.33330286       0.16669714       0.07317000 </v>
    <v>       0.50002714      -0.00002714       0.07317000 </v>
    <v>       0.83330283       0.16669714       0.07317000 </v>
    <v>       0.00002714       0.49997286       0.07317000 </v>
    <v>       0.33330286       0.66669717       0.07317000 </v>
    <v>       0.50002714       0.49997286       0.07317000 </v>
    <v>       0.83330283       0.66669717       0.07317000 </v>
   </varray>
  </structure>
  <varray name="forces" >
   <v>      -0.04228733       0.02441460       0.00000000 </v>
   <v>       0.04228733      -0.02441460      -0.00000000 </v>
   <v>      -0.04228733       0.02441460      -0.00000000 </v>
   <v>       0.04228733      -0.02441460      -0.00000000 </v>
   <v>      -0.04228733       0.02441460       0.00000000 </v>
   <v>       0.04228733      -0.02441460      -0.00000000 </v>
   <v>      -0.04228733       0.02441460       0.00000000 </v>
   <v>       0.04228733      -0.02441460      -0.00000000 </v>
  </varray>
  <varray name="stress" >
   <v>    1338.31102496       1.78761954       0.00000000 </v>
   <v>       1.78761954    1340.37519019       0.00000000 </v>
   <v>       0.00000000       0.00000000    -235.28654174 </v>
  </varray>
  <energy>
   <i name="e_fr_energy">    -64.09558654 </i>
   <i name="e_wo_entrp">    -64.09558654 </i>
   <i name="e_0_energy">      0.00000000 </i>
  </energy>
  <time name="totalsc">    3.13    3.25</time>
 </calculation>
 <calculation>
  <scstep>
   <time name="dav">    0.29    0.29</time>
   <time name="total">    0.32    0.32</time>
   <energy>
    <i name="alphaZ">     64.89642114 </i>
    <i name="ewald">   -743.82358559 </i>
    <i name="hartreedc">   -557.84697428 </i>
    <i name="XCdc">    117.94389061 </i>
    <i name="pawpsdc">    749.69472827 </i>
    <i name="pawaedc">   -760.41646057 </i>
    <i name="eentropy">      0.00000000 </i>
    <i name="bandstr">   -118.92583438 </i>
    <i name="atom">   1177.18737338 </i>
    <i name="e_fr_energy">    -71.29044142 </i>
    <i name="e_wo_entrp">    -71.29044142 </i>
    <i name="e_0_energy">    -71.29044142 </i>
   </energy>
  </scstep>
  <scstep>
   <time name="dav">    0.36    0.36</time>
   <time name="total">    0.39    0.40</time>
   <energy>
    <i name="e_fr_energy">    -69.94744004 </i>
    <i name="e_wo_entrp">    -69.94744004 </i>
    <i name="e_0_energy">    -69.94744004 </i>
   </energy>
  </scstep>
  <scstep>
   <time name="dav">    0.33    0.33</time>
   <time name="total">    0.36    0.38</time>
   <energy>
    <i name="e_fr_energy">    -69.16075385 </i>
    <i name="e_wo_entrp">    -69.16075385 </i>
    <i name="e_0_energy">    -69.16075385 </i>
   </energy>
  </scstep>
  <scstep>
   <time name="dav">    0.30    0.30</time>
   <time name="total">    0.33    0.34</time>
   <energy>
    <i name="e_fr_energy">    -69.18948301 </i>
    <i name="e_wo_entrp">    -69.18948301 </i>
    <i name="e_0_energy">    -69.18948301 </i>
   </energy>
  </scstep>
  <scstep>
   <time name="dav">    0.32    0.32</time>
   <time name="total">    0.36    0.37</time>
   <energy>
    <i name="e_fr_energy">    -69.19137895 </i>
    <i name="e_wo_entrp">    -69.19137895 </i>
    <i name="e_0_energy">    -69.19137895 </i>
   </energy>
  </scstep>
  <scstep>
   <time name="dav">    0.32    0.32</time>
   <time name="total">    0.35    0.36</time>
   <energy>
    <i name="e_fr_energy">    -69.19119773 </i>
    <i name="e_wo_entrp">    -69.19119773 </i>
    <i name="e_0_energy">    -69.19119773 </i>
   </energy>
  </scstep>
  <scstep>
   <time name="dav">    0.26    0.26</time>
   <time name="total">    0.27    0.29</time>
   <energy>
    <i name="alphaZ">     64.89642114 </i>
    <i name="ewald">   -743.82358559 </i>
    <i name="hartreedc">   -510.21999897 </i>
    <i name="XCdc">    115.94556154 </i>
    <i name="pawpsdc">    568.71994509 </i>
    <i name="pawaedc">   -578.72575662 </i>
    <i name="eentropy">      0.00000000 </i>
    <i name="bandstr">   -163.17112628 </i>
    <i name="atom">   1177.18737338 </i>
    <i name="e_fr_energy">    -69.19116630 </i>
    <i name="e_wo_entrp">    -69.19116630 </i>
    <i name="e_0_energy">    -69.19116630 </i>
   </energy>
  </scstep>
  <structure>
   <crystal>
    <varray name="basis" >
     <v>       4.91907101      -0.00002989      -0.00000000 </v>
     <v>      -2.45956139       4.26002552       0.00000000 </v>
     <v>      -0.00000000       0.00000000       3.83457602 </v>
    </varray>
    <i name="volume">     80.35466987 </i>
    <varray name="rec_basis" >
     <v>       0.20329113       0.11737184      -0.00000000 </v>
     <v>       0.00000143       0.23474120      -0.00000000 </v>
     <v>       0.00000000      -0.00000000       0.26078502 </v>
    </varray>
   </crystal>
   <varray name="positions" >
    <v>      -0.00000390       0.00000390       0.07317000 </v>
    <v>       0.33333391       0.16666609       0.07317000 </v>
    <v>       0.49999610       0.00000390       0.07317000 </v>
    <v>       0.83333388       0.16666609       0.07317000 </v>
    <v>      -0.00000390       0.50000390       0.07317000 </v>
    <v>       0.33333391       0.66666612       0.07317000 </v>
    <v>       0.49999610       0.50000390       0.07317000 </v>
    <v>       0.83333388       0.66666612       0.07317000 </v>
   </varray>
  </structure>
  <varray name="forces" >
   <v>       0.00159912      -0.00092325       0.00000000 </v>
   <v>      -0.00159912       0.00092325       0.00000000 </v>
   <v>       0.00159912      -0.00092325       0.00000000 </v>
   <v>      -0.00159912       0.00092325       0.00000000 </v>
   <v>       0.00159912      -0.00092325       0.00000000 </v>
   <v>      -0.00159912       0.00092325       0.00000000 </v>
   <v>       0.00159912      -0.00092325       0.00000000 </v>
   <v>      -0.00159912       0.00092325       0.00000000 </v>
  </varray>
  <varray name="stress" >
   <v>     -35.52181556       0.00743206       0.00000000 </v>
   <v>       0.00743206     -35.51323376       0.00000000 </v>
   <v>       0.00000000       0.00000000       3.52562317 </v>
  </varray>
  <energy>
   <i name="e_fr_energy">    -69.19116630 </i>
   <i name="e_wo_entrp">    -69.19116630 </i>
   <i name="e_0_energy">      0.00000000 </i>
  </energy>
  <time name="totalsc">    2.68    2.80</time>
 </calculation>
 <calculation>
  <scstep>
   <time name="dav">    0.29    0.29</time>
   <time name="total">    0.32    0.33</time>
   <energy>
    <i name="alphaZ">     65.10068605 </i>
    <i name="ewald">   -739.78132611 </i>
    <i name="hartreedc">   -513.18151536 </i>
    <i name="XCdc">    116.06183367 </i>
    <i name="pawpsdc">    568.77559241 </i>
    <i name="pawaedc">   -578.78071792 </i>
    <i name="eentropy">      0.00000000 </i>
    <i name="bandstr">   -164.58016889 </i>
    <i name="atom">   1177.18737338 </i>
    <i name="e_fr_energy">    -69.19824277 </i>
    <i name="e_wo_entrp">    -69.19824277 </i>
    <i name="e_0_energy">    -69.19824277 </i>
   </energy>
  </scstep>
  <scstep>
   <time name="dav">    0.37    0.37</time>
   <time name="total">    0.40    0.42</time>
   <energy>
    <i name="e_fr_energy">    -69.19719380 </i>
    <i name="e_wo_entrp">    -69.19719380 </i>
    <i name="e_0_energy">    -69.19719380 </i>
   </energy>
  </scstep>
  <scstep>
   <time name="dav">    0.33    0.33</time>
   <time name="total">    0.36    0.38</time>
   <energy>
    <i name="e_fr_energy">    -69.19654361 </i>
    <i name="e_wo_entrp">    -69.19654361 </i>
    <i name="e_0_energy">    -69.19654361 </i>
   </energy>
  </scstep>
  <scstep>
   <time name="dav">    0.25    0.25</time>
   <time name="total">    0.28    0.30</time>
   <energy>
    <i name="e_fr_energy">    -69.19654130 </i>
    <i name="e_wo_entrp">    -69.19654130 </i>
    <i name="e_0_energy">    -69.19654130 </i>
   </energy>
  </scstep>
  <scstep>
   <time name="dav">    0.25    0.25</time>
   <time name="total">    0.26    0.27</time>
   <energy>
    <i name="alphaZ">     65.10068605 </i>
    <i name="ewald">   -739.78132611 </i>
    <i name="hartreedc">   -514.51585246 </i>
    <i name="XCdc">    116.11315265 </i>
    <i name="pawpsdc">    572.70432383 </i>
    <i name="pawaedc">   -582.72475376 </i>
    <i name="eentropy">      0.00000000 </i>
    <i name="bandstr">   -163.28014309 </i>
    <i name="atom">   1177.18737338 </i>
    <i name="e_fr_energy">    -69.19653953 </i>
    <i name="e_wo_entrp">    -69.19653953 </i>
    <i name="e_0_energy">    -69.19653953 </i>
   </energy>
  </scstep>
  <structure>
   <crystal>
    <varray name="basis" >
     <v>       4.90717891      -0.00003207      -0.00000000 </v>
     <v>      -2.45361723       4.24972556       0.00000000 </v>
     <v>      -0.00000000       0.00000000       3.84109603 </v>
    </varray>
    <i name="volume">     80.10254288 </i>
    <varray name="rec_basis" >
     <v>       0.20378384       0.11765643      -0.00000000 </v>
     <v>       0.00000154       0.23531020      -0.00000000 </v>
     <v>       0.00000000      -0.00000000       0.26034236 </v>
    </varray>
   </crystal>
   <varray name="positions" >
    <v>      -0.00000310       0.00000310       0.07317000 </v>
    <v>       0.33333310       0.16666690       0.07317000 </v>
    <v>       0.49999690       0.00000310       0.07317000 </v>
    <v>       0.83333308       0.16666690       0.07317000 </v>
    <v>      -0.00000310       0.50000310       0.07317000 </v>
    <v>       0.33333310       0.66666692       0.07317000 </v>
    <v>       0.49999690       0.50000310       0.07317000 </v>
    <v>       0.83333308       0.66666692       0.07317000 </v>
   </varray>
  </structure>
  <varray name="forces" >
   <v>       0.00099115      -0.00057224       0.00000000 </v>
   <v>      -0.00099115       0.00057224       0.00000000 </v>
   <v>       0.00099115      -0.00057224       0.00000000 </v>
   <v>      -0.00099115       0.00057224       0.00000000 </v>
   <v>       0.00099115      -0.00057224       0.00000000 </v>
   <v>      -0.00099115       0.00057224       0.00000000 </v>
   <v>       0.00099115      -0.00057224       0.00000000 </v>
   <v>      -0.00099115       0.00057224       0.00000000 </v>
  </varray>
  <varray name="stress" >
   <v>      -7.87652110       0.01851980       0.00000000 </v>
   <v>       0.01851980      -7.85513627       0.00000000 </v>
   <v>      -0.00000000       0.00000000      -0.98052808 </v>
  </varray>
  <energy>
   <i name="e_fr_energy">    -69.19653953 </i>
   <i name="e_wo_entrp">    -69.19653953 </i>
   <i name="e_0_energy">      0.00000000 </i>
  </energy>
  <time name="totalsc">    1.93    2.03</time>
 </calculation>
 <calculation>
  <scstep>
   <time name="dav">    0.30    0.30</time>
   <time name="total">    0.33    0.33</time>
   <energy>
    <i name="alphaZ">     65.15269180 </i>
    <i name="ewald">   -738.74955342 </i>
    <i name="hartreedc">   -515.27638875 </i>
    <i name="XCdc">    116.14323433 </i>
    <i name="pawpsdc">    572.70984585 </i>
    <i name="pawaedc">   -582.73040369 </i>
    <i name="eentropy">      0.00000000 </i>
    <i name="bandstr">   -163.63368531 </i>
    <i name="atom">   1177.18737338 </i>
    <i name="e_fr_energy">    -69.19688580 </i>
    <i name="e_wo_entrp">    -69.19688580 </i>
    <i name="e_0_energy">    -69.19688580 </i>
   </energy>
  </scstep>
  <scstep>
   <time name="dav">    0.31    0.31</time>
   <time name="total">    0.34    0.35</time>
   <energy>
    <i name="e_fr_energy">    -69.19681753 </i>
    <i name="e_wo_entrp">    -69.19681753 </i>
    <i name="e_0_energy">    -69.19681753 </i>
   </energy>
  </scstep>
  <scstep>
   <time name="dav">    0.20    0.20</time>
   <time name="total">    0.24    0.25</time>
   <energy>
    <i name="e_fr_energy">    -69.19677783 </i>
    <i name="e_wo_entrp">    -69.19677783 </i>
    <i name="e_0_energy">    -69.19677783 </i>
   </energy>
  </scstep>
  <scstep>
   <time name="dav">    0.20    0.20</time>
   <time name="total">    0.23    0.25</time>
   <energy>
    <i name="e_fr_energy">    -69.19677731 </i>
    <i name="e_wo_entrp">    -69.19677731 </i>
    <i name="e_0_energy">    -69.19677731 </i>
   </energy>
  </scstep>
  <scstep>
   <time name="dav">    0.20    0.20</time>
   <time name="total">    0.21    0.22</time>
   <energy>
    <i name="alphaZ">     65.15269180 </i>
    <i name="ewald">   -738.74955342 </i>
    <i name="hartreedc">   -515.63388503 </i>
    <i name="XCdc">    116.15774052 </i>
    <i name="pawpsdc">    573.72846589 </i>
    <i name="pawaedc">   -583.75342691 </i>
    <i name="eentropy">      0.00000000 </i>
    <i name="bandstr">   -163.28618302 </i>
    <i name="atom">   1177.18737338 </i>
    <i name="e_fr_energy">    -69.19677678 </i>
    <i name="e_wo_entrp">    -69.19677678 </i>
    <i name="e_0_energy">    -69.19677678 </i>
   </energy>
  </scstep>
  <structure>
   <crystal>
    <varray name="basis" >
     <v>       4.90416593      -0.00003262      -0.00000000 </v>
     <v>      -2.45211122       4.24711597       0.00000000 </v>
     <v>      -0.00000000       0.00000000       3.84274793 </v>
    </varray>
    <i name="volume">     80.03860396 </i>
    <varray name="rec_basis" >
     <v>       0.20390906       0.11772876      -0.00000000 </v>
     <v>       0.00000157       0.23545480      -0.00000000 </v>
     <v>       0.00000000      -0.00000000       0.26023044 </v>
    </varray>
   </crystal>
   <varray name="positions" >
    <v>      -0.00000290       0.00000290       0.07317000 </v>
    <v>       0.33333290       0.16666710       0.07317000 </v>
    <v>       0.49999710       0.00000290       0.07317000 </v>
    <v>       0.83333287       0.16666710       0.07317000 </v>
    <v>      -0.00000290       0.50000290       0.07317000 </v>
    <v>       0.33333290       0.66666713       0.07317000 </v>
    <v>       0.49999710       0.50000290       0.07317000 </v>
    <v>       0.83333287       0.66666713       0.07317000 </v>
   </varray>
  </structure>
  <varray name="forces" >
   <v>       0.00082478      -0.00047619       0.00000000 </v>
   <v>      -0.00082478       0.00047619       0.00000000 </v>
   <v>       0.00082478      -0.00047619       0.00000000 </v>
   <v>      -0.00082478       0.00047619       0.00000000 </v>
   <v>       0.00082478      -0.00047619       0.00000000 </v>
   <v>      -0.00082478       0.00047619       0.00000000 </v>
   <v>       0.00082478      -0.00047619       0.00000000 </v>
   <v>      -0.00082478       0.00047619       0.00000000 </v>
  </varray>
  <varray name="stress" >
   <v>      -0.94096351       0.02268006       0.00000000 </v>
   <v>       0.02268006      -0.91477483       0.00000000 </v>
   <v>       0.00000000       0.00000000      -2.54272197 </v>
  </varray>
  <energy>
   <i name="e_fr_energy">    -69.19677678 </i>
   <i name="e_wo_entrp">    -69.19677678 </i>
   <i name="e_0_energy">      0.00000000 </i>
  </energy>
  <time name="totalsc">    1.65    1.73</time>
 </calculation>
 <calculation>
  <scstep>
   <time name="dav">    0.20    0.20</time>
   <time name="total">    0.23    0.24</time>
   <energy>
    <i name="alphaZ">     65.15259104 </i>
    <i name="ewald">   -738.75155338 </i>
    <i name="hartreedc">   -515.63154673 </i>
    <i name="XCdc">    116.15770750 </i>
    <i name="pawpsdc">    573.73500886 </i>
    <i name="pawaedc">   -583.76014193 </i>
    <i name="eentropy">      0.00000000 </i>
    <i name="bandstr">   -163.28621556 </i>
    <i name="atom">   1177.18737338 </i>
    <i name="e_fr_energy">    -69.19677681 </i>
    <i name="e_wo_entrp">    -69.19677681 </i>
    <i name="e_0_energy">    -69.19677681 </i>
   </energy>
  </scstep>
  <scstep>
   <time name="dav">    0.20    0.20</time>
   <time name="total">    0.23    0.25</time>
   <energy>
    <i name="e_fr_energy">    -69.19677680 </i>
    <i name="e_wo_entrp">    -69.19677680 </i>
    <i name="e_0_energy">    -69.19677680 </i>
   </energy>
  </scstep>
  <scstep>
   <time name="dav">    0.20    0.20</time>
   <time name="total">    0.23    0.25</time>
   <energy>
    <i name="e_fr_energy">    -69.19677680 </i>
    <i name="e_wo_entrp">    -69.19677680 </i>
    <i name="e_0_energy">    -69.19677680 </i>
   </energy>
  </scstep>
  <scstep>
   <time name="dav">    0.20    0.20</time>
   <time name="total">    0.23    0.25</time>
   <energy>
    <i name="e_fr_energy">    -69.19677680 </i>
    <i name="e_wo_entrp">    -69.19677680 </i>
    <i name="e_0_energy">    -69.19677680 </i>
   </energy>
  </scstep>
  <scstep>
   <time name="dav">    0.19    0.19</time>
   <time name="total">    0.20    0.22</time>
   <energy>
    <i name="alphaZ">     65.15259104 </i>
    <i name="ewald">   -738.75155338 </i>
    <i name="hartreedc">   -515.63044745 </i>
    <i name="XCdc">    116.15770002 </i>
    <i name="pawpsdc">    573.73070024 </i>
    <i name="pawaedc">   -583.75583400 </i>
    <i name="eentropy">      0.00000000 </i>
    <i name="bandstr">   -163.28730665 </i>
    <i name="atom">   1177.18737338 </i>
    <i name="e_fr_energy">    -69.19677681 </i>
    <i name="e_wo_entrp">    -69.19677681 </i>
    <i name="e_0_energy">    -69.19677681 </i>
   </energy>
  </scstep>
  <structure>
   <crystal>
    <varray name="basis" >
     <v>       4.90417176      -0.00003262      -0.00000000 </v>
     <v>      -2.45211413       4.24712102       0.00000000 </v>
     <v>      -0.00000000       0.00000000       3.84274474 </v>
    </varray>
    <i name="volume">     80.03872774 </i>
    <varray name="rec_basis" >
     <v>       0.20390881       0.11772862      -0.00000000 </v>
     <v>       0.00000157       0.23545452      -0.00000000 </v>
     <v>       0.00000000      -0.00000000       0.26023066 </v>
    </varray>
   </crystal>
   <varray name="positions" >
    <v>      -0.00000290       0.00000290       0.07317000 </v>
    <v>       0.33333290       0.16666710       0.07317000 </v>
    <v>       0.49999710       0.00000290       0.07317000 </v>
    <v>       0.83333287       0.16666710       0.07317000 </v>
    <v>      -0.00000290       0.50000290       0.07317000 </v>
    <v>       0.33333290       0.66666713       0.07317000 </v>
    <v>       0.49999710       0.50000290       0.07317000 </v>
    <v>       0.83333287       0.66666713       0.07317000 </v>
   </varray>
  </structure>
  <varray name="forces" >
   <v>       0.00082505      -0.00047634       0.00000000 </v>
   <v>      -0.00082505       0.00047634       0.00000000 </v>
   <v>       0.00082505      -0.00047634       0.00000000 </v>
   <v>      -0.00082505       0.00047634       0.00000000 </v>
   <v>       0.00082505      -0.00047634       0.00000000 </v>
   <v>      -0.00082505       0.00047634       0.00000000 </v>
   <v>       0.00082505      -0.00047634       0.00000000 </v>
   <v>      -0.00082505       0.00047634       0.00000000 </v>
  </varray>
  <varray name="stress" >
   <v>      -0.99271643       0.02267291       0.00000000 </v>
   <v>       0.02267291      -0.96653601       0.00000000 </v>
   <v>       0.00000000       0.00000000      -2.53697681 </v>
  </varray>
  <energy>
   <i name="e_fr_energy">    -69.19677681 </i>
   <i name="e_wo_entrp">    -69.19677681 </i>
   <i name="e_0_energy">      0.00000000 </i>
  </energy>
  <time name="totalsc">    1.44    1.55</time>
 </calculation>
 <calculation>
  <scstep>
   <time name="dav">    0.18    0.18</time>
   <time name="total">    0.22    0.23</time>
   <energy>
    <i name="alphaZ">     65.15266457 </i>
    <i name="ewald">   -738.75009383 </i>
    <i name="hartreedc">   -515.63152361 </i>
    <i name="XCdc">    116.15774293 </i>
    <i name="pawpsdc">    573.73067756 </i>
    <i name="pawaedc">   -583.75581161 </i>
    <i name="eentropy">      0.00000000 </i>
    <i name="bandstr">   -163.28780622 </i>
    <i name="atom">   1177.18737338 </i>
    <i name="e_fr_energy">    -69.19677682 </i>
    <i name="e_wo_entrp">    -69.19677682 </i>
    <i name="e_0_energy">    -69.19677682 </i>
   </energy>
  </scstep>
  <scstep>
   <time name="dav">    0.18    0.18</time>
   <time name="total">    0.21    0.22</time>
   <energy>
    <i name="e_fr_energy">    -69.19677682 </i>
    <i name="e_wo_entrp">    -69.19677682 </i>
    <i name="e_0_energy">    -69.19677682 </i>
   </energy>
  </scstep>
  <scstep>
   <time name="dav">    0.18    0.18</time>
   <time name="total">    0.21    0.23</time>
   <energy>
    <i name="e_fr_energy">    -69.19677683 </i>
    <i name="e_wo_entrp">    -69.19677683 </i>
    <i name="e_0_energy">    -69.19677683 </i>
   </energy>
  </scstep>
  <scstep>
   <time name="dav">    0.18    0.18</time>
   <time name="total">    0.21    0.23</time>
   <energy>
    <i name="e_fr_energy">    -69.19677682 </i>
    <i name="e_wo_entrp">    -69.19677682 </i>
    <i name="e_0_energy">    -69.19677682 </i>
   </energy>
  </scstep>
  <scstep>
   <time name="dav">    0.18    0.18</time>
   <time name="total">    0.19    0.21</time>
   <energy>
    <i name="alphaZ">     65.15266457 </i>
    <i name="ewald">   -738.75009383 </i>
    <i name="hartreedc">   -515.63202278 </i>
    <i name="XCdc">    116.15776241 </i>
    <i name="pawpsdc">    573.73208187 </i>
    <i name="pawaedc">   -583.75722075 </i>
    <i name="eentropy">      0.00000000 </i>
    <i name="bandstr">   -163.28732170 </i>
    <i name="atom">   1177.18737338 </i>
    <i name="e_fr_energy">    -69.19677682 </i>
    <i name="e_wo_entrp">    -69.19677682 </i>
    <i name="e_0_energy">    -69.19677682 </i>
   </energy>
  </scstep>
  <structure>
   <crystal>
    <varray name="basis" >
     <v>       4.90416751      -0.00003262      -0.00000000 </v>
     <v>      -2.45211201       4.24711733       0.00000000 </v>
     <v>      -0.00000000       0.00000000       3.84274707 </v>
    </varray>
    <i name="volume">     80.03863741 </i>
    <varray name="rec_basis" >
     <v>       0.20390899       0.11772872      -0.00000000 </v>
     <v>       0.00000157       0.23545472      -0.00000000 </v>
     <v>       0.00000000      -0.00000000       0.26023050 </v>
    </varray>
   </crystal>
   <varray name="positions" >
    <v>      -0.00000290       0.00000290       0.07317000 </v>
    <v>       0.33333290       0.16666710       0.07317000 </v>
    <v>       0.49999710       0.00000290       0.07317000 </v>
    <v>       0.83333287       0.16666710       0.07317000 </v>
    <v>      -0.00000290       0.50000290       0.07317000 </v>
    <v>       0.33333290       0.66666713       0.07317000 </v>
    <v>       0.49999710       0.50000290       0.07317000 </v>
    <v>       0.83333287       0.66666713       0.07317000 </v>
   </varray>
  </structure>
  <varray name="forces" >
   <v>       0.00082487      -0.00047624       0.00000000 </v>
   <v>      -0.00082487       0.00047624       0.00000000 </v>
   <v>       0.00082487      -0.00047624       0.00000000 </v>
   <v>      -0.00082487       0.00047624       0.00000000 </v>
   <v>       0.00082487      -0.00047624       0.00000000 </v>
   <v>      -0.00082487       0.00047624       0.00000000 </v>
   <v>       0.00082487      -0.00047624       0.00000000 </v>
   <v>      -0.00082487       0.00047624       0.00000000 </v>
  </varray>
  <varray name="stress" >
   <v>      -0.98281858       0.02266684       0.00000000 </v>
   <v>       0.02266684      -0.95664517       0.00000000 </v>
   <v>       0.00000000       0.00000000      -2.53933172 </v>
  </varray>
  <energy>
   <i name="e_fr_energy">    -69.19677682 </i>
   <i name="e_wo_entrp">    -69.19677682 </i>
   <i name="e_0_energy">      0.00000000 </i>
  </energy>
  <time name="totalsc">    1.35    1.44</time>
 </calculation>
 <calculation>
  <scstep>
   <time name="dav">    0.18    0.18</time>
   <time name="total">    0.21    0.22</time>
   <energy>
    <i name="alphaZ">     65.15268260 </i>
    <i name="ewald">   -738.74973590 </i>
    <i name="hartreedc">   -515.63228207 </i>
    <i name="XCdc">    116.15777280 </i>
    <i name="pawpsdc">    573.73208893 </i>
    <i name="pawaedc">   -583.75722837 </i>
    <i name="eentropy">      0.00000000 </i>
    <i name="bandstr">   -163.28744819 </i>
    <i name="atom">   1177.18737338 </i>
    <i name="e_fr_energy">    -69.19677683 </i>
    <i name="e_wo_entrp">    -69.19677683 </i>
    <i name="e_0_energy">    -69.19677683 </i>
   </energy>
  </scstep>
  <scstep>
   <time name="dav">    0.18    0.18</time>
   <time name="total">    0.21    0.22</time>
   <energy>
    <i name="e_fr_energy">    -69.19677683 </i>
    <i name="e_wo_entrp">    -69.19677683 </i>
    <i name="e_0_energy">    -69.19677683 </i>
   </energy>
  </scstep>
  <scstep>
   <time name="dav">    0.18    0.18</time>
   <time name="total">    0.21    0.22</time>
   <energy>
    <i name="e_fr_energy">    -69.19677683 </i>
    <i name="e_wo_entrp">    -69.19677683 </i>
    <i name="e_0_energy">    -69.19677683 </i>
   </energy>
  </scstep>
  <scstep>
   <time name="dav">    0.18    0.18</time>
   <time name="total">    0.21    0.23</time>
   <energy>
    <i name="e_fr_energy">    -69.19677683 </i>
    <i name="e_wo_entrp">    -69.19677683 </i>
    <i name="e_0_energy">    -69.19677683 </i>
   </energy>
  </scstep>
  <scstep>
   <time name="dav">    0.18    0.18</time>
   <time name="total">    0.19    0.20</time>
   <energy>
    <i name="alphaZ">     65.15268260 </i>
    <i name="ewald">   -738.74973590 </i>
    <i name="hartreedc">   -515.63240142 </i>
    <i name="XCdc">    116.15777750 </i>
    <i name="pawpsdc">    573.73243381 </i>
    <i name="pawaedc">   -583.75757454 </i>
    <i name="eentropy">      0.00000000 </i>
    <i name="bandstr">   -163.28733225 </i>
    <i name="atom">   1177.18737338 </i>
    <i name="e_fr_energy">    -69.19677683 </i>
    <i name="e_wo_entrp">    -69.19677683 </i>
    <i name="e_0_energy">    -69.19677683 </i>
   </energy>
  </scstep>
  <structure>
   <crystal>
    <varray name="basis" >
     <v>       4.90416646      -0.00003262      -0.00000000 </v>
     <v>      -2.45211148       4.24711643       0.00000000 </v>
     <v>      -0.00000000       0.00000000       3.84274764 </v>
    </varray>
    <i name="volume">     80.03861526 </i>
    <varray name="rec_basis" >
     <v>       0.20390903       0.11772874      -0.00000000 </v>
     <v>       0.00000157       0.23545477      -0.00000000 </v>
     <v>       0.00000000      -0.00000000       0.26023046 </v>
    </varray>
   </crystal>
   <varray name="positions" >
    <v>      -0.00000290       0.00000290       0.07317000 </v>
    <v>       0.33333290       0.16666710       0.07317000 </v>
    <v>       0.49999710       0.00000290       0.07317000 </v>
    <v>       0.83333287       0.16666710       0.07317000 </v>
    <v>      -0.00000290       0.50000290       0.07317000 </v>
    <v>       0.33333290       0.66666713       0.07317000 </v>
    <v>       0.49999710       0.50000290       0.07317000 </v>
    <v>       0.83333287       0.66666713       0.07317000 </v>
   </varray>
  </structure>
  <varray name="forces" >
   <v>       0.00082482      -0.00047621       0.00000000 </v>
   <v>      -0.00082482       0.00047621       0.00000000 </v>
   <v>       0.00082482      -0.00047621       0.00000000 </v>
   <v>      -0.00082482       0.00047621       0.00000000 </v>
   <v>       0.00082482      -0.00047621       0.00000000 </v>
   <v>      -0.00082482       0.00047621       0.00000000 </v>
   <v>       0.00082482      -0.00047621       0.00000000 </v>
   <v>      -0.00082482       0.00047621       0.00000000 </v>
  </varray>
  <varray name="stress" >
   <v>      -0.98046627       0.02267083       0.00000000 </v>
   <v>       0.02267083      -0.95428825       0.00000000 </v>
   <v>       0.00000000       0.00000000      -2.53971764 </v>
  </varray>
  <energy>
   <i name="e_fr_energy">    -69.19677683 </i>
   <i name="e_wo_entrp">    -69.19677683 </i>
   <i name="e_0_energy">      0.00000000 </i>
  </energy>
  <time name="totalsc">    1.35    1.43</time>
 </calculation>
 <calculation>
  <scstep>
   <time name="dav">    0.18    0.18</time>
   <time name="total">    0.21    0.22</time>
   <energy>
    <i name="alphaZ">     65.15268850 </i>
    <i name="ewald">   -738.74961883 </i>
    <i name="hartreedc">   -515.63248733 </i>
    <i name="XCdc">    116.15778093 </i>
    <i name="pawpsdc">    573.73243743 </i>
    <i name="pawaedc">   -583.75757831 </i>
    <i name="eentropy">      0.00000000 </i>
    <i name="bandstr">   -163.28737261 </i>
    <i name="atom">   1177.18737338 </i>
    <i name="e_fr_energy">    -69.19677683 </i>
    <i name="e_wo_entrp">    -69.19677683 </i>
    <i name="e_0_energy">    -69.19677683 </i>
   </energy>
  </scstep>
  <scstep>
   <time name="dav">    0.18    0.18</time>
   <time name="total">    0.22    0.22</time>
   <energy>
    <i name="e_fr_energy">    -69.19677683 </i>
    <i name="e_wo_entrp">    -69.19677683 </i>
    <i name="e_0_energy">    -69.19677683 </i>
   </energy>
  </scstep>
  <scstep>
   <time name="dav">    0.18    0.18</time>
   <time name="total">    0.22    0.23</time>
   <energy>
    <i name="e_fr_energy">    -69.19677683 </i>
    <i name="e_wo_entrp">    -69.19677683 </i>
    <i name="e_0_energy">    -69.19677683 </i>
   </energy>
  </scstep>
  <scstep>
   <time name="dav">    0.18    0.18</time>
   <time name="total">    0.21    0.23</time>
   <energy>
    <i name="e_fr_energy">    -69.19677683 </i>
    <i name="e_wo_entrp">    -69.19677683 </i>
    <i name="e_0_energy">    -69.19677683 </i>
   </energy>
  </scstep>
  <scstep>
   <time name="dav">    0.18    0.18</time>
   <time name="total">    0.19    0.20</time>
   <energy>
    <i name="alphaZ">     65.15268850 </i>
    <i name="ewald">   -738.74961883 </i>
    <i name="hartreedc">   -515.63252647 </i>
    <i name="XCdc">    116.15778246 </i>
    <i name="pawpsdc">    573.73255167 </i>
    <i name="pawaedc">   -583.75769298 </i>
    <i name="eentropy">      0.00000000 </i>
    <i name="bandstr">   -163.28733456 </i>
    <i name="atom">   1177.18737338 </i>
    <i name="e_fr_energy">    -69.19677683 </i>
    <i name="e_wo_entrp">    -69.19677683 </i>
    <i name="e_0_energy">    -69.19677683 </i>
   </energy>
  </scstep>
  <structure>
   <crystal>
    <varray name="basis" >
     <v>       4.90416612      -0.00003262      -0.00000000 </v>
     <v>      -2.45211131       4.24711613       0.00000000 </v>
     <v>      -0.00000000       0.00000000       3.84274783 </v>
    </varray>
    <i name="volume">     80.03860801 </i>
    <varray name="rec_basis" >
     <v>       0.20390905       0.11772875      -0.00000000 </v>
     <v>       0.00000157       0.23545479      -0.00000000 </v>
     <v>       0.00000000      -0.00000000       0.26023045 </v>
    </varray>
   </crystal>
   <varray name="positions" >
    <v>      -0.00000290       0.00000290       0.07317000 </v>
    <v>       0.33333290       0.16666710       0.07317000 </v>
    <v>       0.49999710       0.00000290       0.07317000 </v>
    <v>       0.83333287       0.16666710       0.07317000 </v>
    <v>      -0.00000290       0.50000290       0.07317000 </v>
    <v>       0.33333290       0.66666713       0.07317000 </v>
    <v>       0.49999710       0.50000290       0.07317000 </v>
    <v>       0.83333287       0.66666713       0.07317000 </v>
   </varray>
  </structure>
  <varray name="forces" >
   <v>       0.00082480      -0.00047620       0.00000000 </v>
   <v>      -0.00082480       0.00047620       0.00000000 </v>
   <v>       0.00082480      -0.00047620       0.00000000 </v>
   <v>      -0.00082480       0.00047620       0.00000000 </v>
   <v>       0.00082480      -0.00047620      -0.00000000 </v>
   <v>      -0.00082480       0.00047620      -0.00000000 </v>
   <v>       0.00082480      -0.00047620      -0.00000000 </v>
   <v>      -0.00082480       0.00047620      -0.00000000 </v>
  </varray>
  <varray name="stress" >
   <v>      -0.97969594       0.02267298       0.00000000 </v>
   <v>       0.02267298      -0.95351544       0.00000000 </v>
   <v>       0.00000000       0.00000000      -2.53987189 </v>
  </varray>
  <energy>
   <i name="e_fr_energy">    -69.19677683 </i>
   <i name="e_wo_entrp">    -69.19677683 </i>
   <i name="e_0_energy">      0.00000000 </i>
  </energy>
  <time name="totalsc">    1.38    1.46</time>
 </calculation>
 <calculation>
  <scstep>
   <time name="dav">    0.18    0.18</time>
   <time name="total">    0.21    0.22</time>
   <energy>
    <i name="alphaZ">     65.15269059 </i>
    <i name="ewald">   -738.74957735 </i>
    <i name="hartreedc">   -515.63255690 </i>
    <i name="XCdc">    116.15778368 </i>
    <i name="pawpsdc">    573.73255269 </i>
    <i name="pawaedc">   -583.75769405 </i>
    <i name="eentropy">      0.00000000 </i>
    <i name="bandstr">   -163.28734887 </i>
    <i name="atom">   1177.18737338 </i>
    <i name="e_fr_energy">    -69.19677683 </i>
    <i name="e_wo_entrp">    -69.19677683 </i>
    <i name="e_0_energy">    -69.19677683 </i>
   </energy>
  </scstep>
  <scstep>
   <time name="dav">    0.18    0.18</time>
   <time name="total">    0.21    0.23</time>
   <energy>
    <i name="e_fr_energy">    -69.19677683 </i>
    <i name="e_wo_entrp">    -69.19677683 </i>
    <i name="e_0_energy">    -69.19677683 </i>
   </energy>
  </scstep>
  <scstep>
   <time name="dav">    0.18    0.18</time>
   <time name="total">    0.21    0.23</time>
   <energy>
    <i name="e_fr_energy">    -69.19677683 </i>
    <i name="e_wo_entrp">    -69.19677683 </i>
    <i name="e_0_energy">    -69.19677683 </i>
   </energy>
  </scstep>
  <scstep>
   <time name="dav">    0.18    0.18</time>
   <time name="total">    0.21    0.23</time>
   <energy>
    <i name="e_fr_energy">    -69.19677683 </i>
    <i name="e_wo_entrp">    -69.19677683 </i>
    <i name="e_0_energy">    -69.19677683 </i>
   </energy>
  </scstep>
  <scstep>
   <time name="dav">    0.18    0.18</time>
   <time name="total">    0.19    0.21</time>
   <energy>
    <i name="alphaZ">     65.15269059 </i>
    <i name="ewald">   -738.74957735 </i>
    <i name="hartreedc">   -515.63257077 </i>
    <i name="XCdc">    116.15778422 </i>
    <i name="pawpsdc">    573.73259313 </i>
    <i name="pawaedc">   -583.75773464 </i>
    <i name="eentropy">      0.00000000 </i>
    <i name="bandstr">   -163.28733540 </i>
    <i name="atom">   1177.18737338 </i>
    <i name="e_fr_energy">    -69.19677683 </i>
    <i name="e_wo_entrp">    -69.19677683 </i>
    <i name="e_0_energy">    -69.19677683 </i>
   </energy>
  </scstep>
  <structure>
   <crystal>
    <varray name="basis" >
     <v>       4.90416600      -0.00003262      -0.00000000 </v>
     <v>      -2.45211125       4.24711603       0.00000000 </v>
     <v>      -0.00000000       0.00000000       3.84274790 </v>
    </varray>
    <i name="volume">     80.03860545 </i>
    <varray name="rec_basis" >
     <v>       0.20390905       0.11772875      -0.00000000 </v>
     <v>       0.00000157       0.23545480      -0.00000000 </v>
     <v>       0.00000000      -0.00000000       0.26023045 </v>
    </varray>
   </crystal>
   <varray name="positions" >
    <v>      -0.00000290       0.00000290       0.07317000 </v>
    <v>       0.33333290       0.16666710       0.07317000 </v>
    <v>       0.49999710       0.00000290       0.07317000 </v>
    <v>       0.83333287       0.16666710       0.07317000 </v>
    <v>      -0.00000290       0.50000290       0.07317000 </v>
    <v>       0.33333290       0.66666713       0.07317000 </v>
    <v>       0.49999710       0.50000290       0.07317000 </v>
    <v>       0.83333287       0.66666713       0.07317000 </v>
   </varray>
  </structure>
  <varray name="forces" >
   <v>       0.00082480      -0.00047620       0.00000000 </v>
   <v>      -0.00082480       0.00047620      -0.00000000 </v>
   <v>       0.00082480      -0.00047620       0.00000000 </v>
   <v>      -0.00082480       0.00047620      -0.00000000 </v>
   <v>       0.00082480      -0.00047620       0.00000000 </v>
   <v>      -0.00082480       0.00047620       0.00000000 </v>
   <v>       0.00082480      -0.00047620       0.00000000 </v>
   <v>      -0.00082480       0.00047620       0.00000000 </v>
  </varray>
  <varray name="stress" >
   <v>      -0.97941746       0.02267375       0.00000000 </v>
   <v>       0.02267375      -0.95323607       0.00000000 </v>
   <v>       0.00000000       0.00000000      -2.53992124 </v>
  </varray>
  <energy>
   <i name="e_fr_energy">    -69.19677683 </i>
   <i name="e_wo_entrp">    -69.19677683 </i>
   <i name="e_0_energy">      0.00000000 </i>
  </energy>
  <time name="totalsc">    1.35    1.45</time>
 </calculation>
 <calculation>
  <scstep>
   <time name="dav">    0.18    0.18</time>
   <time name="total">    0.21    0.22</time>
   <energy>
    <i name="alphaZ">     65.15269135 </i>
    <i name="ewald">   -738.74956224 </i>
    <i name="hartreedc">   -515.63258186 </i>
    <i name="XCdc">    116.15778466 </i>
    <i name="pawpsdc">    573.73259350 </i>
    <i name="pawaedc">   -583.75773503 </i>
    <i name="eentropy">      0.00000000 </i>
    <i name="bandstr">   -163.28734060 </i>
    <i name="atom">   1177.18737338 </i>
    <i name="e_fr_energy">    -69.19677683 </i>
    <i name="e_wo_entrp">    -69.19677683 </i>
    <i name="e_0_energy">    -69.19677683 </i>
   </energy>
  </scstep>
  <scstep>
   <time name="dav">    0.19    0.19</time>
   <time name="total">    0.22    0.22</time>
   <energy>
    <i name="e_fr_energy">    -69.19677683 </i>
    <i name="e_wo_entrp">    -69.19677683 </i>
    <i name="e_0_energy">    -69.19677683 </i>
   </energy>
  </scstep>
  <scstep>
   <time name="dav">    0.18    0.18</time>
   <time name="total">    0.22    0.56</time>
   <energy>
    <i name="e_fr_energy">    -69.19677683 </i>
    <i name="e_wo_entrp">    -69.19677683 </i>
    <i name="e_0_energy">    -69.19677683 </i>
   </energy>
  </scstep>
  <scstep>
   <time name="dav">    0.18    0.18</time>
   <time name="total">    0.22    0.23</time>
   <energy>
    <i name="e_fr_energy">    -69.19677683 </i>
    <i name="e_wo_entrp">    -69.19677683 </i>
    <i name="e_0_energy">    -69.19677683 </i>
   </energy>
  </scstep>
  <scstep>
   <time name="dav">    0.18    0.18</time>
   <time name="total">    0.19    0.21</time>
   <energy>
    <i name="alphaZ">     65.15269135 </i>
    <i name="ewald">   -738.74956224 </i>
    <i name="hartreedc">   -515.63258691 </i>
    <i name="XCdc">    116.15778486 </i>
    <i name="pawpsdc">    573.73260824 </i>
    <i name="pawaedc">   -583.75774982 </i>
    <i name="eentropy">      0.00000000 </i>
    <i name="bandstr">   -163.28733569 </i>
    <i name="atom">   1177.18737338 </i>
    <i name="e_fr_energy">    -69.19677683 </i>
    <i name="e_wo_entrp">    -69.19677683 </i>
    <i name="e_0_energy">    -69.19677683 </i>
   </energy>
  </scstep>
  <structure>
   <crystal>
    <varray name="basis" >
     <v>       4.90416596      -0.00003262      -0.00000000 </v>
     <v>      -2.45211123       4.24711599       0.00000000 </v>
     <v>      -0.00000000       0.00000000       3.84274792 </v>
    </varray>
    <i name="volume">     80.03860451 </i>
    <varray name="rec_basis" >
     <v>       0.20390905       0.11772876      -0.00000000 </v>
     <v>       0.00000157       0.23545480      -0.00000000 </v>
     <v>       0.00000000      -0.00000000       0.26023044 </v>
    </varray>
   </crystal>
   <varray name="positions" >
    <v>      -0.00000290       0.00000290       0.07317000 </v>
    <v>       0.33333290       0.16666710       0.07317000 </v>
    <v>       0.49999710       0.00000290       0.07317000 </v>
    <v>       0.83333287       0.16666710       0.07317000 </v>
    <v>      -0.00000290       0.50000290       0.07317000 </v>
    <v>       0.33333290       0.66666713       0.07317000 </v>
    <v>       0.49999710       0.50000290       0.07317000 </v>
    <v>       0.83333287       0.66666713       0.07317000 </v>
   </varray>
  </structure>
  <varray name="forces" >
   <v>       0.00082479      -0.00047619       0.00000000 </v>
   <v>      -0.00082479       0.00047619       0.00000000 </v>
   <v>       0.00082479      -0.00047619       0.00000000 </v>
   <v>      -0.00082479       0.00047619       0.00000000 </v>
   <v>       0.00082479      -0.00047619       0.00000000 </v>
   <v>      -0.00082479       0.00047619      -0.00000000 </v>
   <v>       0.00082479      -0.00047619       0.00000000 </v>
   <v>      -0.00082479       0.00047619      -0.00000000 </v>
  </varray>
  <varray name="stress" >
   <v>      -0.97931826       0.02266949       0.00000000 </v>
   <v>       0.02266949      -0.95314179       0.00000000 </v>
   <v>       0.00000000       0.00000000      -2.53994519 </v>
  </varray>
  <energy>
   <i name="e_fr_energy">    -69.19677683 </i>
   <i name="e_wo_entrp">    -69.19677683 </i>
   <i name="e_0_energy">      0.00000000 </i>
  </energy>
  <time name="totalsc">    1.36    1.78</time>
 </calculation>
 <calculation>
  <scstep>
   <time name="dav">    0.18    0.18</time>
   <time name="total">    0.21    0.22</time>
   <energy>
    <i name="alphaZ">     65.15269163 </i>
    <i name="ewald">   -738.74955668 </i>
    <i name="hartreedc">   -515.63259099 </i>
    <i name="XCdc">    116.15778502 </i>
    <i name="pawpsdc">    573.73260837 </i>
    <i name="pawaedc">   -583.75774996 </i>
    <i name="eentropy">      0.00000000 </i>
    <i name="bandstr">   -163.28733761 </i>
    <i name="atom">   1177.18737338 </i>
    <i name="e_fr_energy">    -69.19677683 </i>
    <i name="e_wo_entrp">    -69.19677683 </i>
    <i name="e_0_energy">    -69.19677683 </i>
   </energy>
  </scstep>
  <scstep>
   <time name="dav">    0.18    0.18</time>
   <time name="total">    0.21    0.22</time>
   <energy>
    <i name="e_fr_energy">    -69.19677683 </i>
    <i name="e_wo_entrp">    -69.19677683 </i>
    <i name="e_0_energy">    -69.19677683 </i>
   </energy>
  </scstep>
  <scstep>
   <time name="dav">    0.18    0.18</time>
   <time name="total">    0.21    0.23</time>
   <energy>
    <i name="e_fr_energy">    -69.19677683 </i>
    <i name="e_wo_entrp">    -69.19677683 </i>
    <i name="e_0_energy">    -69.19677683 </i>
   </energy>
  </scstep>
  <scstep>
   <time name="dav">    0.19    0.19</time>
   <time name="total">    0.22    0.24</time>
   <energy>
    <i name="e_fr_energy">    -69.19677683 </i>
    <i name="e_wo_entrp">    -69.19677683 </i>
    <i name="e_0_energy">    -69.19677683 </i>
   </energy>
  </scstep>
  <scstep>
   <time name="dav">    0.18    0.18</time>
   <time name="total">    0.19    0.20</time>
   <energy>
    <i name="alphaZ">     65.15269163 </i>
    <i name="ewald">   -738.74955668 </i>
    <i name="hartreedc">   -515.63259285 </i>
    <i name="XCdc">    116.15778510 </i>
    <i name="pawpsdc">    573.73261380 </i>
    <i name="pawaedc">   -583.75775541 </i>
    <i name="eentropy">      0.00000000 </i>
    <i name="bandstr">   -163.28733580 </i>
    <i name="atom">   1177.18737338 </i>
    <i name="e_fr_energy">    -69.19677683 </i>
    <i name="e_wo_entrp">    -69.19677683 </i>
    <i name="e_0_energy">    -69.19677683 </i>
   </energy>
  </scstep>
  <structure>
   <crystal>
    <varray name="basis" >
     <v>       4.90416594      -0.00003262      -0.00000000 </v>
     <v>      -2.45211122       4.24711598       0.00000000 </v>
     <v>      -0.00000000       0.00000000       3.84274793 </v>
    </varray>
    <i name="volume">     80.03860417 </i>
    <varray name="rec_basis" >
     <v>       0.20390905       0.11772876      -0.00000000 </v>
     <v>       0.00000157       0.23545480      -0.00000000 </v>
     <v>       0.00000000      -0.00000000       0.26023044 </v>
    </varray>
   </crystal>
   <varray name="positions" >
    <v>      -0.00000290       0.00000290       0.07317000 </v>
    <v>       0.33333290       0.16666710       0.07317000 </v>
    <v>       0.49999710       0.00000290       0.07317000 </v>
    <v>       0.83333287       0.16666710       0.07317000 </v>
    <v>      -0.00000290       0.50000290       0.07317000 </v>
    <v>       0.33333290       0.66666713       0.07317000 </v>
    <v>       0.49999710       0.50000290       0.07317000 </v>
    <v>       0.83333287       0.66666713       0.07317000 </v>
   </varray>
  </structure>
  <varray name="forces" >
   <v>       0.00082479      -0.00047619       0.00000000 </v>
   <v>      -0.00082479       0.00047619      -0.00000000 </v>
   <v>       0.00082479      -0.00047619       0.00000000 </v>
   <v>      -0.00082479       0.00047619      -0.00000000 </v>
   <v>       0.00082479      -0.00047619       0.00000000 </v>
   <v>      -0.00082479       0.00047619      -0.00000000 </v>
   <v>       0.00082479      -0.00047619       0.00000000 </v>
   <v>      -0.00082479       0.00047619      -0.00000000 </v>
  </varray>
  <varray name="stress" >
   <v>      -0.97927602       0.02266890       0.00000000 </v>
   <v>       0.02266890      -0.95310023       0.00000000 </v>
   <v>       0.00000000       0.00000000      -2.53994861 </v>
  </varray>
  <energy>
   <i name="e_fr_energy">    -69.19677683 </i>
   <i name="e_wo_entrp">    -69.19677683 </i>
   <i name="e_0_energy">      0.00000000 </i>
  </energy>
  <time name="totalsc">    1.35    1.44</time>
 </calculation>
 <calculation>
  <scstep>
   <time name="dav">    0.29    0.29</time>
   <time name="total">    0.32    0.33</time>
   <energy>
    <i name="alphaZ">     62.39845959 </i>
    <i name="ewald">   -791.89018789 </i>
    <i name="hartreedc">   -475.42128073 </i>
    <i name="XCdc">    114.54593546 </i>
    <i name="pawpsdc">    573.73261385 </i>
    <i name="pawaedc">   -583.75775546 </i>
    <i name="eentropy">      0.00000000 </i>
    <i name="bandstr">   -145.65191330 </i>
    <i name="atom">   1177.18737338 </i>
    <i name="e_fr_energy">    -68.85675510 </i>
    <i name="e_wo_entrp">    -68.85675510 </i>
    <i name="e_0_energy">    -68.85675510 </i>
   </energy>
  </scstep>
  <scstep>
   <time name="dav">    0.38    0.38</time>
   <time name="total">    0.41    0.41</time>
   <energy>
    <i name="e_fr_energy">    -68.65991419 </i>
    <i name="e_wo_entrp">    -68.65991419 </i>
    <i name="e_0_energy">    -68.65991419 </i>
   </energy>
  </scstep>
  <scstep>
   <time name="dav">    0.33    0.33</time>
   <time name="total">    0.36    0.40</time>
   <energy>
    <i name="e_fr_energy">    -68.53799054 </i>
    <i name="e_wo_entrp">    -68.53799054 </i>
    <i name="e_0_energy">    -68.53799054 </i>
   </energy>
  </scstep>
  <scstep>
   <time name="dav">    0.31    0.31</time>
   <time name="total">    0.35    0.36</time>
   <energy>
    <i name="e_fr_energy">    -68.53842773 </i>
    <i name="e_wo_entrp">    -68.53842773 </i>
    <i name="e_0_energy">    -68.53842773 </i>
   </energy>
  </scstep>
  <scstep>
   <time name="dav">    0.35    0.35</time>
   <time name="total">    0.38    0.40</time>
   <energy>
    <i name="e_fr_energy">    -68.53797983 </i>
    <i name="e_wo_entrp">    -68.53797983 </i>
    <i name="e_0_energy">    -68.53797983 </i>
   </energy>
  </scstep>
  <scstep>
   <time name="dav">    0.32    0.32</time>
   <time name="total">    0.32    0.34</time>
   <energy>
    <i name="alphaZ">     62.39845959 </i>
    <i name="ewald">   -791.89018789 </i>
    <i name="hartreedc">   -458.34397499 </i>
    <i name="XCdc">    113.83417397 </i>
    <i name="pawpsdc">    522.34137372 </i>
    <i name="pawaedc">   -532.16052887 </i>
    <i name="eentropy">      0.00000000 </i>
    <i name="bandstr">   -161.90466113 </i>
    <i name="atom">   1177.18737338 </i>
    <i name="e_fr_energy">    -68.53797221 </i>
    <i name="e_wo_entrp">    -68.53797221 </i>
    <i name="e_0_energy">    -68.53797221 </i>
   </energy>
  </scstep>
  <structure>
   <crystal>
    <varray name="basis" >
     <v>       5.07249346      -0.00000173       0.00000000 </v>
     <v>      -2.53624823       4.39290733       0.00000000 </v>
     <v>       0.00000000       0.00000000       3.75046008 </v>
    </varray>
    <i name="volume">     83.57146203 </i>
    <varray name="rec_basis" >
     <v>       0.19714174       0.11381993      -0.00000000 </v>
     <v>       0.00000008       0.22763972      -0.00000000 </v>
     <v>      -0.00000000      -0.00000000       0.26663395 </v>
    </varray>
   </crystal>
   <varray name="positions" >
    <v>      -0.00001430       0.00001430       0.07317000 </v>
    <v>       0.33334430       0.16665570       0.07317000 </v>
    <v>       0.49998570       0.00001430       0.07317000 </v>
    <v>       0.83334428       0.16665570       0.07317000 </v>
    <v>      -0.00001430       0.50001430       0.07317000 </v>
    <v>       0.33334430       0.66665572       0.07317000 </v>
    <v>       0.49998570       0.50001430       0.07317000 </v>
    <v>       0.83334428       0.66665572       0.07317000 </v>
   </varray>
  </structure>
  <varray name="forces" >
   <v>       0.00811083      -0.00468279      -0.00000000 </v>
   <v>      -0.00811083       0.00468279       0.00000000 </v>
   <v>       0.00811083      -0.00468279      -0.00000000 </v>
   <v>      -0.00811083       0.00468279       0.00000000 </v>
   <v>       0.00811083      -0.00468279      -0.00000000 </v>
   <v>      -0.00811083       0.00468279       0.00000000 </v>
   <v>       0.00811083      -0.00468279      -0.00000000 </v>
   <v>      -0.00811083       0.00468279       0.00000000 </v>
  </varray>
  <varray name="stress" >
   <v>    -340.99127683      -0.08184799       0.00000000 </v>
   <v>      -0.08184799    -341.08578674       0.00000000 </v>
   <v>       0.00000000       0.00000000      65.17010991 </v>
  </varray>
  <energy>
   <i name="e_fr_energy">    -68.53797221 </i>
   <i name="e_wo_entrp">    -68.53797221 </i>
   <i name="e_0_energy">      0.00000000 </i>
  </energy>
