       N       E                     dE             d eps       ncg     rms          rms(c)
DAV:   1     0.115614137790E+03    0.11561E+03   -0.20252E+04  1440   0.100E+03
DAV:   2    -0.767976797657E+02   -0.19241E+03   -0.18334E+03  1836   0.223E+02
DAV:   3    -0.855293553164E+02   -0.87317E+01   -0.86771E+01  1896   0.456E+01
DAV:   4    -0.856203839458E+02   -0.91029E-01   -0.91005E-01  1800   0.524E+00
DAV:   5    -0.856217934814E+02   -0.14095E-02   -0.14094E-02  1968   0.598E-01    0.131E+01
DAV:   6    -0.793042010541E+02    0.63176E+01   -0.64647E+00  1836   0.119E+01    0.645E+00
DAV:   7    -0.777443144618E+02    0.15599E+01   -0.49069E+00  1920   0.124E+01    0.171E+00
DAV:   8    -0.777919541862E+02   -0.47640E-01   -0.44943E-01  1776   0.330E+00    0.104E+00
DAV:   9    -0.778027586849E+02   -0.10804E-01   -0.40755E-02  1872   0.124E+00    0.313E-01
DAV:  10    -0.778026741552E+02    0.84530E-04   -0.42297E-03  1848   0.512E-01    0.938E-02
DAV:  11    -0.778026817879E+02   -0.76327E-05   -0.14130E-03  1836   0.196E-01    0.473E-02
DAV:  12    -0.778026530684E+02    0.28719E-04   -0.16981E-04  1596   0.113E-01
   1 F= -.77802653E+02 E0= -.77802595E+02  d E =-.778027E+02
       N       E                     dE             d eps       ncg     rms          rms(c)
DAV:   1    -0.756579144321E+02    0.21448E+01   -0.16092E+03  1524   0.192E+02    0.101E+01
DAV:   2    -0.849056502254E+02   -0.92477E+01   -0.12421E+02  1824   0.476E+01    0.787E+00
DAV:   3    -0.832739280944E+02    0.16317E+01   -0.44927E+00  1812   0.948E+00    0.376E+00
DAV:   4    -0.829462194369E+02    0.32771E+00   -0.12138E+00  1824   0.504E+00    0.114E+00
DAV:   5    -0.829699503944E+02   -0.23731E-01   -0.14206E-01  1896   0.201E+00    0.480E-01
DAV:   6    -0.829746044461E+02   -0.46541E-02   -0.10708E-02  1800   0.505E-01    0.235E-01
DAV:   7    -0.829733025557E+02    0.13019E-02   -0.38722E-03  1716   0.333E-01    0.405E-02
DAV:   8    -0.829731284326E+02    0.17412E-03   -0.36057E-04  1824   0.108E-01    0.288E-02
DAV:   9    -0.829730989299E+02    0.29503E-04   -0.64124E-05  1524   0.390E-02
   2 F= -.82973099E+02 E0= -.82973099E+02  d E =-.517045E+01
       N       E                     dE             d eps       ncg     rms          rms(c)
DAV:   1    -0.832441601103E+02   -0.27103E+00   -0.16053E+02  1440   0.541E+01    0.246E+00
DAV:   2    -0.834326803142E+02   -0.18852E+00   -0.36174E+00  1896   0.747E+00    0.177E+00
DAV:   3    -0.833689105888E+02    0.63770E-01   -0.12699E-01  1704   0.164E+00    0.847E-01
DAV:   4    -0.833487894638E+02    0.20121E-01   -0.73077E-02  1872   0.127E+00    0.249E-01
DAV:   5    -0.833480764043E+02    0.71306E-03   -0.89918E-03  1836   0.524E-01    0.103E-01
DAV:   6    -0.833480048580E+02    0.71546E-04   -0.59648E-04  1824   0.117E-01
   3 F= -.83348005E+02 E0= -.83348005E+02  d E =-.554535E+01
       N       E                     dE             d eps       ncg     rms          rms(c)
DAV:   1    -0.869863698234E+02   -0.36383E+01   -0.48758E+02  1440   0.113E+02    0.118E+01
DAV:   2    -0.842748601974E+02    0.27115E+01   -0.28339E+01  1920   0.243E+01    0.667E+00
DAV:   3    -0.829459255686E+02    0.13289E+01   -0.38916E+00  1764   0.828E+00    0.332E+00
DAV:   4    -0.825434891731E+02    0.40244E+00   -0.11449E+00  1860   0.541E+00    0.109E+00
DAV:   5    -0.825404914935E+02    0.29977E-02   -0.20240E-01  1812   0.229E+00    0.544E-01
DAV:   6    -0.825388252045E+02    0.16663E-02   -0.15543E-02  1884   0.706E-01    0.265E-01
DAV:   7    -0.825387492626E+02    0.75942E-04   -0.60729E-03  1824   0.375E-01    0.647E-02
DAV:   8    -0.825387038755E+02    0.45387E-04   -0.29863E-04  1884   0.109E-01
   4 F= -.82538704E+02 E0= -.82538703E+02  d E =0.809301E+00
       N       E                     dE             d eps       ncg     rms          rms(c)
DAV:   1    -0.856313503881E+02   -0.30926E+01   -0.17656E+02  1536   0.655E+01    0.669E+00
DAV:   2    -0.846626600352E+02    0.96869E+00   -0.48801E+00  1920   0.121E+01    0.378E+00
DAV:   3    -0.842271742256E+02    0.43549E+00   -0.14183E+00  1836   0.702E+00    0.132E+00
DAV:   4    -0.842050065970E+02    0.22168E-01   -0.23324E-01  1896   0.253E+00    0.591E-01
DAV:   5    -0.841970918659E+02    0.79147E-02   -0.38287E-02  1884   0.114E+00    0.233E-01
DAV:   6    -0.841964316469E+02    0.66022E-03   -0.50608E-03  1824   0.379E-01    0.702E-02
DAV:   7    -0.841963419384E+02    0.89708E-04   -0.68811E-04  1848   0.127E-01
   5 F= -.84196342E+02 E0= -.84196342E+02  d E =-.848337E+00
       N       E                     dE             d eps       ncg     rms          rms(c)
DAV:   1    -0.864753052823E+02   -0.22789E+01   -0.41374E+02  1440   0.999E+01    0.840E+00
DAV:   2    -0.851365632765E+02    0.13387E+01   -0.11655E+01  1920   0.165E+01    0.540E+00
DAV:   3    -0.837915849095E+02    0.13450E+01   -0.36011E+00  1728   0.943E+00    0.946E-01
DAV:   4    -0.838090124969E+02   -0.17428E-01   -0.30238E-01  1824   0.247E+00    0.717E-01
DAV:   5    -0.838050065745E+02    0.40059E-02   -0.17020E-02  1860   0.705E-01    0.243E-01
DAV:   6    -0.838049181965E+02    0.88378E-04   -0.38736E-03  1812   0.331E-01    0.938E-02
DAV:   7    -0.838045992676E+02    0.31893E-03   -0.73470E-04  1908   0.150E-01    0.449E-02
DAV:   8    -0.838044715655E+02    0.12770E-03   -0.39048E-04  1824   0.927E-02    0.182E-02
DAV:   9    -0.838044531414E+02    0.18424E-04   -0.37722E-05  1620   0.305E-02
   6 F= -.83804453E+02 E0= -.83804450E+02  d E =0.391889E+00
       N       E                     dE             d eps       ncg     rms          rms(c)
DAV:   1    -0.857130091119E+02   -0.19085E+01   -0.10678E+02  1512   0.491E+01    0.449E+00
DAV:   2    -0.853334159257E+02    0.37959E+00   -0.25733E+00  1908   0.736E+00    0.275E+00
DAV:   3    -0.850428189862E+02    0.29060E+00   -0.72115E-01  1812   0.491E+00    0.701E-01
DAV:   4    -0.850403568689E+02    0.24621E-02   -0.11345E-01  1836   0.156E+00    0.444E-01
DAV:   5    -0.850378041670E+02    0.25527E-02   -0.12488E-02  1752   0.578E-01    0.177E-01
DAV:   6    -0.850372730159E+02    0.53115E-03   -0.17084E-03  1800   0.212E-01    0.373E-02
DAV:   7    -0.850371638211E+02    0.10919E-03   -0.11620E-04  1476   0.565E-02    0.160E-02
DAV:   8    -0.850371339257E+02    0.29895E-04   -0.29755E-05  1524   0.270E-02
   7 F= -.85037134E+02 E0= -.85037133E+02  d E =-.840792E+00
       N       E                     dE             d eps       ncg     rms          rms(c)
DAV:   1    -0.860834038981E+02   -0.10462E+01   -0.10091E+02  1464   0.435E+01    0.571E+00
DAV:   2    -0.854700241504E+02    0.61338E+00   -0.23977E+00  1824   0.732E+00    0.218E+00
DAV:   3    -0.853803249598E+02    0.89699E-01   -0.40519E-01  1752   0.263E+00    0.845E-01
DAV:   4    -0.853647046149E+02    0.15620E-01   -0.79367E-02  1896   0.148E+00    0.440E-01
DAV:   5    -0.853607580365E+02    0.39466E-02   -0.21709E-02  1860   0.621E-01    0.940E-02
DAV:   6    -0.853606245721E+02    0.13346E-03   -0.11501E-03  1812   0.146E-01    0.531E-02
DAV:   7    -0.853604450599E+02    0.17951E-03   -0.21457E-04  1608   0.871E-02    0.135E-02
DAV:   8    -0.853604316192E+02    0.13441E-04   -0.37018E-05  1680   0.267E-02
   8 F= -.85360432E+02 E0= -.85360313E+02  d E =-.323298E+00
       N       E                     dE             d eps       ncg     rms          rms(c)
DAV:   1    -0.854381511570E+02   -0.77706E-01   -0.56355E+00  1500   0.103E+01    0.148E+00
DAV:   2    -0.854000807959E+02    0.38070E-01   -0.18344E-01  1812   0.189E+00    0.468E-01
DAV:   3    -0.853952033259E+02    0.48775E-02   -0.12334E-02  1740   0.516E-01    0.222E-01
DAV:   4    -0.853938049025E+02    0.13984E-02   -0.45026E-03  1836   0.350E-01    0.476E-02
DAV:   5    -0.853937937244E+02    0.11178E-04   -0.48900E-04  1836   0.959E-02    0.258E-02
DAV:   6    -0.853937772933E+02    0.16431E-04   -0.34204E-05  1416   0.282E-02
   9 F= -.85393777E+02 E0= -.85393725E+02  d E =-.356643E+00
       N       E                     dE             d eps       ncg     rms          rms(c)
DAV:   1    -0.852596080366E+02    0.13419E+00   -0.61533E+01  1464   0.336E+01    0.347E+00
DAV:   2    -0.851206267961E+02    0.13898E+00   -0.18036E+00  1860   0.539E+00    0.171E+00
DAV:   3    -0.850501398515E+02    0.70487E-01   -0.12318E-01  1740   0.161E+00    0.667E-01
DAV:   4    -0.850404963697E+02    0.96435E-02   -0.37749E-02  1908   0.981E-01    0.149E-01
DAV:   5    -0.850405015117E+02   -0.51420E-05   -0.35024E-03  1836   0.254E-01    0.775E-02
DAV:   6    -0.850403669422E+02    0.13457E-03   -0.30476E-04  1860   0.826E-02    0.285E-02
DAV:   7    -0.850403294047E+02    0.37537E-04   -0.67726E-05  1608   0.471E-02
  10 F= -.85040329E+02 E0= -.85039950E+02  d E =0.353448E+00
       N       E                     dE             d eps       ncg     rms          rms(c)
DAV:   1    -0.856091179320E+02   -0.56875E+00   -0.31548E+01  1488   0.239E+01    0.268E+00
DAV:   2    -0.855208618019E+02    0.88256E-01   -0.94694E-01  1776   0.397E+00    0.122E+00
DAV:   3    -0.854856208025E+02    0.35241E-01   -0.51330E-02  1812   0.118E+00    0.559E-01
DAV:   4    -0.854788986839E+02    0.67221E-02   -0.31623E-02  1872   0.888E-01    0.116E-01
DAV:   5    -0.854788295045E+02    0.69179E-04   -0.27221E-03  1788   0.235E-01    0.556E-02
DAV:   6    -0.854787650801E+02    0.64424E-04   -0.18594E-04  1848   0.615E-02
  11 F= -.85478765E+02 E0= -.85478658E+02  d E =-.849878E-01
       N       E                     dE             d eps       ncg     rms          rms(c)
DAV:   1    -0.856040609635E+02   -0.12523E+00   -0.62544E+00  1440   0.114E+01    0.101E+00
DAV:   2    -0.855955148041E+02    0.85462E-02   -0.13942E-01  1896   0.169E+00    0.580E-01
DAV:   3    -0.855872360196E+02    0.82788E-02   -0.26095E-02  1848   0.867E-01    0.168E-01
DAV:   4    -0.855870192301E+02    0.21679E-03   -0.38139E-03  1860   0.284E-01    0.760E-02
DAV:   5    -0.855870268184E+02   -0.75883E-05   -0.32122E-04  1848   0.811E-02    0.299E-02
DAV:   6    -0.855870269140E+02   -0.95689E-07   -0.26916E-05  1488   0.276E-02
  12 F= -.85587027E+02 E0= -.85586745E+02  d E =-.108262E+00
       N       E                     dE             d eps       ncg     rms          rms(c)
DAV:   1    -0.856102402086E+02   -0.23213E-01   -0.18146E+00  1440   0.622E+00    0.554E-01
DAV:   2    -0.856076251729E+02    0.26150E-02   -0.41692E-02  1908   0.920E-01    0.318E-01
DAV:   3    -0.856051917402E+02    0.24334E-02   -0.85142E-03  1800   0.493E-01    0.101E-01
DAV:   4    -0.856050883509E+02    0.10339E-03   -0.12969E-03  1872   0.164E-01    0.453E-02
DAV:   5    -0.856050885993E+02   -0.24843E-06   -0.12170E-04  1536   0.500E-02    0.167E-02
DAV:   6    -0.856050889985E+02   -0.39913E-06   -0.10875E-05  1068   0.173E-02
  13 F= -.85605089E+02 E0= -.85604687E+02  d E =-.126324E+00
       N       E                     dE             d eps       ncg     rms          rms(c)
DAV:   1    -0.856690117934E+02   -0.63923E-01   -0.13486E+01  1440   0.140E+01    0.824E-01
DAV:   2    -0.856869489275E+02   -0.17937E-01   -0.23186E-01  1812   0.171E+00    0.433E-01
DAV:   3    -0.856858724021E+02    0.10765E-02   -0.47404E-03  1848   0.344E-01    0.187E-01
DAV:   4    -0.856859956006E+02   -0.12320E-03   -0.13546E-03  1884   0.167E-01    0.472E-02
DAV:   5    -0.856860352208E+02   -0.39620E-04   -0.14099E-04  1764   0.504E-02    0.197E-02
DAV:   6    -0.856860335982E+02    0.16226E-05   -0.12803E-05  1152   0.205E-02
  14 F= -.85686034E+02 E0= -.85685447E+02  d E =-.809446E-01
       N       E                     dE             d eps       ncg     rms          rms(c)
DAV:   1    -0.856940488186E+02   -0.80136E-02   -0.41250E+00  1440   0.768E+00    0.460E-01
DAV:   2    -0.856993834696E+02   -0.53347E-02   -0.70794E-02  1812   0.940E-01    0.241E-01
DAV:   3    -0.856990292011E+02    0.35427E-03   -0.13467E-03  1836   0.182E-01    0.106E-01
DAV:   4    -0.856990662682E+02   -0.37067E-04   -0.49347E-04  1872   0.998E-02    0.235E-02
DAV:   5    -0.856990759777E+02   -0.97095E-05   -0.51444E-05  1140   0.308E-02    0.107E-02
DAV:   6    -0.856990759324E+02    0.45297E-07   -0.63054E-06  1056   0.131E-02
  15 F= -.85699076E+02 E0= -.85698384E+02  d E =-.939869E-01
       N       E                     dE             d eps       ncg     rms          rms(c)
DAV:   1    -0.857588115363E+02   -0.59736E-01   -0.54422E+00  1440   0.908E+00    0.642E-01
DAV:   2    -0.857640730348E+02   -0.52615E-02   -0.10339E-01  1836   0.122E+00    0.329E-01
DAV:   3    -0.857626747202E+02    0.13983E-02   -0.33470E-03  1860   0.293E-01    0.134E-01
DAV:   4    -0.857625250662E+02    0.14965E-03   -0.98489E-04  1908   0.156E-01    0.307E-02
DAV:   5    -0.857625096525E+02    0.15414E-04   -0.10935E-04  1644   0.539E-02    0.131E-02
DAV:   6    -0.857625040640E+02    0.55885E-05   -0.11906E-05  1236   0.169E-02
  16 F= -.85762504E+02 E0= -.85761777E+02  d E =-.634281E-01
       N       E                     dE             d eps       ncg     rms          rms(c)
DAV:   1    -0.858140420695E+02   -0.51532E-01   -0.48946E+01  1440   0.271E+01    0.187E+00
DAV:   2    -0.858643355399E+02   -0.50293E-01   -0.94767E-01  1848   0.364E+00    0.987E-01
DAV:   3    -0.858504769926E+02    0.13859E-01   -0.38287E-02  1848   0.105E+00    0.360E-01
DAV:   4    -0.858496165449E+02    0.86045E-03   -0.81277E-03  1884   0.415E-01    0.110E-01
DAV:   5    -0.858494840916E+02    0.13245E-03   -0.42747E-04  1800   0.102E-01    0.465E-02
DAV:   6    -0.858493937339E+02    0.90358E-04   -0.87063E-05  1584   0.556E-02
  17 F= -.85849394E+02 E0= -.85848823E+02  d E =-.150318E+00
       N       E                     dE             d eps       ncg     rms          rms(c)
DAV:   1    -0.859026985696E+02   -0.53214E-01   -0.46052E+00  1440   0.846E+00    0.637E-01
DAV:   2    -0.859044018198E+02   -0.17033E-02   -0.82722E-02  1884   0.112E+00    0.355E-01
DAV:   3    -0.859018210967E+02    0.25807E-02   -0.48199E-03  1836   0.340E-01    0.105E-01
DAV:   4    -0.859016746685E+02    0.14643E-03   -0.97682E-04  1920   0.158E-01    0.365E-02
DAV:   5    -0.859016514825E+02    0.23186E-04   -0.79969E-05  1716   0.403E-02    0.179E-02
DAV:   6    -0.859016357061E+02    0.15776E-04   -0.17497E-05  1464   0.220E-02
  18 F= -.85901636E+02 E0= -.85901263E+02  d E =-.522420E-01
       N       E                     dE             d eps       ncg     rms          rms(c)
DAV:   1    -0.859106245406E+02   -0.89731E-02   -0.14668E+00  1440   0.477E+00    0.356E-01
DAV:   2    -0.859112223715E+02   -0.59783E-03   -0.26255E-02  1896   0.630E-01    0.199E-01
DAV:   3    -0.859103904889E+02    0.83188E-03   -0.16224E-03  1872   0.194E-01    0.577E-02
DAV:   4    -0.859103439372E+02    0.46552E-04   -0.28919E-04  1920   0.872E-02    0.212E-02
DAV:   5    -0.859103360848E+02    0.78523E-05   -0.25457E-05  1176   0.238E-02    0.105E-02
DAV:   6    -0.859103308542E+02    0.52306E-05   -0.78100E-06  1368   0.145E-02
  19 F= -.85910331E+02 E0= -.85910055E+02  d E =-.609371E-01
       N       E                     dE             d eps       ncg     rms          rms(c)
DAV:   1    -0.859104237905E+02   -0.87706E-04   -0.15003E-02  1464   0.483E-01    0.355E-02
DAV:   2    -0.859104293653E+02   -0.55748E-05   -0.27227E-04  1872   0.641E-02    0.202E-02
DAV:   3    -0.859104196173E+02    0.97480E-05   -0.17406E-05   936   0.204E-02    0.577E-03
DAV:   4    -0.859104189967E+02    0.62055E-06   -0.39244E-06   828   0.104E-02    0.233E-03
DAV:   5    -0.859104188649E+02    0.13188E-06   -0.69182E-07   804   0.412E-03    0.115E-03
DAV:   6    -0.859104187929E+02    0.71950E-07   -0.14303E-07   792   0.181E-03
  20 F= -.85910419E+02 E0= -.85910152E+02  d E =-.610251E-01
       N       E                     dE             d eps       ncg     rms          rms(c)
DAV:   1    -0.859223634479E+02   -0.11945E-01   -0.33277E-01  1440   0.244E+00    0.249E-01
DAV:   2    -0.859216175016E+02    0.74595E-03   -0.80625E-03  1908   0.369E-01    0.101E-01
DAV:   3    -0.859214240881E+02    0.19341E-03   -0.80946E-04  1644   0.118E-01    0.381E-02
DAV:   4    -0.859213894376E+02    0.34650E-04   -0.13431E-04  1572   0.655E-02    0.205E-02
DAV:   5    -0.859213823761E+02    0.70616E-05   -0.39501E-05   888   0.277E-02    0.589E-03
DAV:   6    -0.859213822901E+02    0.85974E-07   -0.61120E-06   804   0.111E-02
  21 F= -.85921382E+02 E0= -.85921104E+02  d E =-.109635E-01
       N       E                     dE             d eps       ncg     rms          rms(c)
DAV:   1    -0.859395829998E+02   -0.18201E-01   -0.21804E+00  1440   0.627E+00    0.643E-01
DAV:   2    -0.859345439980E+02    0.50390E-02   -0.53580E-02  1908   0.957E-01    0.257E-01
DAV:   3    -0.859332908366E+02    0.12532E-02   -0.51260E-03  1632   0.300E-01    0.980E-02
DAV:   4    -0.859330537154E+02    0.23712E-03   -0.91615E-04  1896   0.170E-01    0.521E-02
DAV:   5    -0.859330059064E+02    0.47809E-04   -0.24740E-04  1764   0.652E-02    0.145E-02
DAV:   6    -0.859330021042E+02    0.38022E-05   -0.22469E-05  1260   0.214E-02
  22 F= -.85933002E+02 E0= -.85932693E+02  d E =-.225833E-01
       N       E                     dE             d eps       ncg     rms          rms(c)
DAV:   1    -0.859389134371E+02   -0.59075E-02   -0.36846E-01  1440   0.254E+00    0.219E-01
DAV:   2    -0.859384986878E+02    0.41475E-03   -0.89091E-03  1884   0.379E-01    0.115E-01
DAV:   3    -0.859381346451E+02    0.36404E-03   -0.77482E-04  1740   0.128E-01    0.387E-02
DAV:   4    -0.859380991871E+02    0.35458E-04   -0.14337E-04  1656   0.669E-02    0.143E-02
DAV:   5    -0.859380956734E+02    0.35137E-05   -0.25997E-05   936   0.224E-02    0.622E-03
DAV:   6    -0.859380948066E+02    0.86685E-06   -0.41832E-06   828   0.953E-03
  23 F= -.85938095E+02 E0= -.85937769E+02  d E =-.509270E-02
       N       E                     dE             d eps       ncg     rms          rms(c)
DAV:   1    -0.859382149302E+02   -0.11926E-03   -0.92436E-03  1452   0.403E-01    0.343E-02
DAV:   2    -0.859382048533E+02    0.10077E-04   -0.22417E-04  1800   0.600E-02    0.181E-02
DAV:   3    -0.859381953092E+02    0.95441E-05   -0.19731E-05   864   0.210E-02    0.599E-03
DAV:   4    -0.859381945592E+02    0.74999E-06   -0.45685E-06   756   0.119E-02    0.207E-03
DAV:   5    -0.859381945215E+02    0.37704E-07   -0.95020E-07   744   0.455E-03    0.104E-03
DAV:   6    -0.859381945098E+02    0.11708E-07   -0.14496E-07   756   0.184E-03
  24 F= -.85938195E+02 E0= -.85937866E+02  d E =-.519241E-02
       N       E                     dE             d eps       ncg     rms          rms(c)
DAV:   1    -0.859410717266E+02   -0.28772E-02   -0.11743E-01  1440   0.151E+00    0.120E-01
DAV:   2    -0.859408883487E+02    0.18338E-03   -0.20925E-03  1920   0.206E-01    0.669E-02
DAV:   3    -0.859407277488E+02    0.16060E-03   -0.28624E-04  1560   0.859E-02    0.175E-02
DAV:   4    -0.859407212526E+02    0.64962E-05   -0.48764E-05  1104   0.343E-02    0.678E-03
DAV:   5    -0.859407203475E+02    0.90509E-06   -0.48060E-06   912   0.114E-02    0.154E-03
DAV:   6    -0.859407202606E+02    0.86894E-07   -0.86915E-07   900   0.462E-03
  25 F= -.85940720E+02 E0= -.85940388E+02  d E =-.252575E-02
       N       E                     dE             d eps       ncg     rms          rms(c)
DAV:   1    -0.859420232083E+02   -0.13029E-02   -0.13220E-01  1464   0.160E+00    0.127E-01
DAV:   2    -0.859418187548E+02    0.20445E-03   -0.23562E-03  1920   0.218E-01    0.709E-02
DAV:   3    -0.859416391014E+02    0.17965E-03   -0.32352E-04  1608   0.909E-02    0.185E-02
DAV:   4    -0.859416316486E+02    0.74528E-05   -0.51597E-05  1164   0.353E-02    0.715E-03
DAV:   5    -0.859416306385E+02    0.10101E-05   -0.52940E-06   912   0.120E-02    0.165E-03
DAV:   6    -0.859416305450E+02    0.93509E-07   -0.96893E-07   900   0.485E-03
  26 F= -.85941631E+02 E0= -.85941296E+02  d E =-.343604E-02
       N       E                     dE             d eps       ncg     rms          rms(c)
DAV:   1    -0.859422258964E+02   -0.59526E-03   -0.10116E-01  1464   0.120E+00    0.685E-02
DAV:   2    -0.859423211488E+02   -0.95252E-04   -0.17478E-03  1920   0.152E-01    0.351E-02
DAV:   3    -0.859422977407E+02    0.23408E-04   -0.43957E-05  1188   0.327E-02    0.162E-02
DAV:   4    -0.859422944952E+02    0.32456E-05   -0.23422E-05   936   0.239E-02    0.332E-03
DAV:   5    -0.859422948267E+02   -0.33150E-06   -0.32757E-06   852   0.882E-03    0.166E-03
DAV:   6    -0.859422948501E+02   -0.23427E-07   -0.31800E-07   792   0.266E-03
  27 F= -.85942295E+02 E0= -.85941956E+02  d E =-.664305E-03
       N       E                     dE             d eps       ncg     rms          rms(c)
DAV:   1    -0.859423188315E+02   -0.24005E-04   -0.64582E-03  1464   0.304E-01    0.174E-02
DAV:   2    -0.859423248085E+02   -0.59770E-05   -0.11031E-04  1476   0.385E-02    0.880E-03
DAV:   3    -0.859423234775E+02    0.13310E-05   -0.43297E-06   828   0.981E-03    0.398E-03
DAV:   4    -0.859423233587E+02    0.11882E-06   -0.15410E-06   756   0.606E-03    0.819E-04
DAV:   5    -0.859423234064E+02   -0.47675E-07   -0.20532E-07   756   0.217E-03    0.378E-04
DAV:   6    -0.859423234123E+02   -0.59676E-08   -0.24657E-08   756   0.703E-04
  28 F= -.85942323E+02 E0= -.85941983E+02  d E =-.692867E-03
       N       E                     dE             d eps       ncg     rms          rms(c)
DAV:   1    -0.859429612876E+02   -0.63788E-03   -0.88266E-02  1440   0.106E+00    0.651E-02
DAV:   2    -0.859430240032E+02   -0.62716E-04   -0.11674E-03  1908   0.122E-01    0.293E-02
DAV:   3    -0.859430113522E+02    0.12651E-04   -0.28595E-05   912   0.255E-02    0.131E-02
DAV:   4    -0.859430095654E+02    0.17869E-05   -0.89886E-06   756   0.151E-02    0.350E-03
DAV:   5    -0.859430098368E+02   -0.27142E-06   -0.16247E-06   756   0.555E-03    0.172E-03
DAV:   6    -0.859430098761E+02   -0.39290E-07   -0.18885E-07   756   0.212E-03
  29 F= -.85943010E+02 E0= -.85942682E+02  d E =-.686464E-03
       N       E                     dE             d eps       ncg     rms          rms(c)
DAV:   1    -0.859437117162E+02   -0.70188E-03   -0.79446E-01  1440   0.320E+00    0.198E-01
DAV:   2    -0.859442446345E+02   -0.53292E-03   -0.10654E-02  1896   0.369E-01    0.874E-02
DAV:   3    -0.859441519509E+02    0.92684E-04   -0.25807E-04  1848   0.745E-02    0.401E-02
DAV:   4    -0.859441311778E+02    0.20773E-04   -0.76224E-05  1368   0.430E-02    0.108E-02
DAV:   5    -0.859441324751E+02   -0.12972E-05   -0.13457E-05   912   0.161E-02    0.537E-03
DAV:   6    -0.859441326326E+02   -0.15754E-06   -0.18152E-06   828   0.644E-03
  30 F= -.85944133E+02 E0= -.85943842E+02  d E =-.180922E-02
       N       E                     dE             d eps       ncg     rms          rms(c)
DAV:   1    -0.859445043674E+02   -0.37189E-03   -0.23106E-02  1440   0.533E-01    0.281E-02
DAV:   2    -0.859445202106E+02   -0.15843E-04   -0.24093E-04  1812   0.561E-02    0.134E-02
DAV:   3    -0.859445171240E+02    0.30866E-05   -0.50985E-06   780   0.108E-02    0.574E-03
DAV:   4    -0.859445167659E+02    0.35806E-06   -0.24132E-06   756   0.703E-03    0.143E-03
DAV:   5    -0.859445168068E+02   -0.40910E-07   -0.32069E-07   756   0.233E-03    0.773E-04
DAV:   6    -0.859445168063E+02    0.55206E-09   -0.27133E-08   756   0.788E-04
  31 F= -.85944517E+02 E0= -.85944231E+02  d E =-.384174E-03
       N       E                     dE             d eps       ncg     rms          rms(c)
DAV:   1    -0.859454481407E+02   -0.93133E-03   -0.20733E-01  1440   0.160E+00    0.849E-02
DAV:   2    -0.859455851558E+02   -0.13702E-03   -0.21282E-03  1860   0.168E-01    0.400E-02
DAV:   3    -0.859455601770E+02    0.24979E-04   -0.43435E-05  1128   0.316E-02    0.176E-02
DAV:   4    -0.859455567171E+02    0.34598E-05   -0.22114E-05   768   0.214E-02    0.414E-03
DAV:   5    -0.859455570123E+02   -0.29519E-06   -0.30660E-06   744   0.719E-03    0.228E-03
DAV:   6    -0.859455570090E+02    0.33340E-08   -0.24392E-07   756   0.236E-03
  32 F= -.85945557E+02 E0= -.85945284E+02  d E =-.142438E-02
       N       E                     dE             d eps       ncg     rms          rms(c)
DAV:   1    -0.859466794808E+02   -0.11225E-02   -0.82866E-01  1440   0.319E+00    0.172E-01
DAV:   2    -0.859472123871E+02   -0.53291E-03   -0.86368E-03  1872   0.339E-01    0.800E-02
DAV:   3    -0.859471292104E+02    0.83177E-04   -0.17824E-04  1860   0.622E-02    0.360E-02
DAV:   4    -0.859471154932E+02    0.13717E-04   -0.78096E-05  1356   0.396E-02    0.838E-03
DAV:   5    -0.859471165570E+02   -0.10638E-05   -0.10994E-05   840   0.137E-02    0.464E-03
DAV:   6    -0.859471165588E+02   -0.17749E-08   -0.96371E-07   768   0.471E-03
  33 F= -.85947117E+02 E0= -.85946870E+02  d E =-.298393E-02
       N       E                     dE             d eps       ncg     rms          rms(c)
DAV:   1    -0.859463087783E+02    0.80778E-03   -0.33086E+00  1440   0.639E+00    0.351E-01
DAV:   2    -0.859484005235E+02   -0.20917E-02   -0.35805E-02  1848   0.690E-01    0.161E-01
DAV:   3    -0.859481311755E+02    0.26935E-03   -0.68211E-04  1884   0.122E-01    0.765E-02
DAV:   4    -0.859480871701E+02    0.44005E-04   -0.36947E-04  1824   0.858E-02    0.172E-02
DAV:   5    -0.859480902840E+02   -0.31139E-05   -0.48449E-05  1092   0.282E-02    0.946E-03
DAV:   6    -0.859480904827E+02   -0.19866E-06   -0.44897E-06   924   0.942E-03
  34 F= -.85948090E+02 E0= -.85947891E+02  d E =-.395785E-02
       N       E                     dE             d eps       ncg     rms          rms(c)
DAV:   1    -0.859483569370E+02   -0.26665E-03   -0.29938E-02  1452   0.606E-01    0.303E-02
DAV:   2    -0.859483787899E+02   -0.21853E-04   -0.28408E-04  1884   0.601E-02    0.147E-02
DAV:   3    -0.859483753275E+02    0.34624E-05   -0.49556E-06   828   0.106E-02    0.590E-03
DAV:   4    -0.859483750919E+02    0.23567E-06   -0.27257E-06   756   0.711E-03    0.155E-03
DAV:   5    -0.859483751278E+02   -0.35956E-07   -0.33840E-07   732   0.236E-03    0.754E-04
DAV:   6    -0.859483751268E+02    0.97043E-09   -0.26969E-08   756   0.741E-04
  35 F= -.85948375E+02 E0= -.85948178E+02  d E =-.284644E-03
       N       E                     dE             d eps       ncg     rms          rms(c)
DAV:   1    -0.859490545441E+02   -0.67942E-03   -0.26916E-01  1440   0.182E+00    0.894E-02
DAV:   2    -0.859492477966E+02   -0.19325E-03   -0.25173E-03  1860   0.180E-01    0.437E-02
DAV:   3    -0.859492220248E+02    0.25772E-04   -0.40074E-05  1260   0.305E-02    0.183E-02
DAV:   4    -0.859492199749E+02    0.20500E-05   -0.25496E-05   840   0.218E-02    0.452E-03
DAV:   5    -0.859492201795E+02   -0.20465E-06   -0.34709E-06   768   0.749E-03    0.185E-03
DAV:   6    -0.859492201835E+02   -0.39349E-08   -0.22098E-07   756   0.210E-03
  36 F= -.85949220E+02 E0= -.85949029E+02  d E =-.112970E-02
       N       E                     dE             d eps       ncg     rms          rms(c)
DAV:   1    -0.859502127283E+02   -0.99255E-03   -0.10755E+00  1440   0.363E+00    0.181E-01
DAV:   2    -0.859509707040E+02   -0.75798E-03   -0.10201E-02  1812   0.363E-01    0.876E-02
DAV:   3    -0.859508869569E+02    0.83747E-04   -0.16458E-04  1896   0.606E-02    0.377E-02
DAV:   4    -0.859508766694E+02    0.10288E-04   -0.89723E-05  1428   0.402E-02    0.884E-03
DAV:   5    -0.859508773722E+02   -0.70279E-06   -0.11804E-05   912   0.140E-02    0.332E-03
DAV:   6    -0.859508774221E+02   -0.49911E-07   -0.73199E-07   828   0.392E-03
  37 F= -.85950877E+02 E0= -.85950699E+02  d E =-.278694E-02
       N       E                     dE             d eps       ncg     rms          rms(c)
DAV:   1    -0.859512672080E+02   -0.38984E-03   -0.42923E+00  1440   0.727E+00    0.368E-01
DAV:   2    -0.859542821959E+02   -0.30150E-02   -0.42501E-02  1836   0.742E-01    0.176E-01
DAV:   3    -0.859540055096E+02    0.27669E-03   -0.63433E-04  1908   0.121E-01    0.820E-02
DAV:   4    -0.859539806494E+02    0.24860E-04   -0.42494E-04  1752   0.882E-02    0.187E-02
DAV:   5    -0.859539823087E+02   -0.16593E-05   -0.54959E-05  1392   0.292E-02    0.958E-03
DAV:   6    -0.859539823568E+02   -0.48130E-07   -0.26049E-06   984   0.714E-03
  38 F= -.85953982E+02 E0= -.85953826E+02  d E =-.589187E-02
       N       E                     dE             d eps       ncg     rms          rms(c)
DAV:   1    -0.859466303364E+02    0.73520E-02   -0.17071E+01  1440   0.146E+01    0.768E-01
DAV:   2    -0.859599882401E+02   -0.13358E-01   -0.19221E-01  1824   0.157E+00    0.363E-01
DAV:   3    -0.859588430843E+02    0.11452E-02   -0.26892E-03  1908   0.257E-01    0.189E-01
DAV:   4    -0.859587337219E+02    0.10936E-03   -0.21313E-03  1692   0.206E-01    0.428E-02
DAV:   5    -0.859587412045E+02   -0.74826E-05   -0.34800E-04  1884   0.719E-02    0.256E-02
DAV:   6    -0.859587408332E+02    0.37131E-06   -0.81328E-06  1152   0.123E-02
  39 F= -.85958741E+02 E0= -.85958622E+02  d E =-.106504E-01
       N       E                     dE             d eps       ncg     rms          rms(c)
DAV:   1    -0.858894416279E+02    0.69300E-01   -0.67115E+01  1440   0.291E+01    0.166E+00
DAV:   2    -0.859632228490E+02   -0.73781E-01   -0.10487E+00  1812   0.359E+00    0.789E-01
DAV:   3    -0.859572129340E+02    0.60099E-02   -0.15497E-02  1908   0.617E-01    0.450E-01
DAV:   4    -0.859569161577E+02    0.29678E-03   -0.12600E-02  1752   0.518E-01    0.123E-01
DAV:   5    -0.859568459013E+02    0.70256E-04   -0.23383E-03  1848   0.200E-01    0.568E-02
DAV:   6    -0.859568483194E+02   -0.24182E-05   -0.83828E-05  1512   0.379E-02
  40 F= -.85956848E+02 E0= -.85956777E+02  d E =-.875784E-02
       N       E                     dE             d eps       ncg     rms          rms(c)
DAV:   1    -0.859376623737E+02    0.19184E-01   -0.29754E+01  1440   0.197E+01    0.958E-01
DAV:   2    -0.859624896715E+02   -0.24827E-01   -0.32078E-01  1824   0.202E+00    0.523E-01
DAV:   3    -0.859601948656E+02    0.22948E-02   -0.10458E-02  1884   0.467E-01    0.199E-01
DAV:   4    -0.859600700991E+02    0.12477E-03   -0.14461E-03  1764   0.176E-01    0.848E-02
DAV:   5    -0.859601161206E+02   -0.46022E-04   -0.35631E-04  1896   0.828E-02    0.252E-02
DAV:   6    -0.859601139081E+02    0.22125E-05   -0.36968E-05  1152   0.277E-02
  41 F= -.85960114E+02 E0= -.85960015E+02  d E =-.120234E-01
       N       E                     dE             d eps       ncg     rms          rms(c)
DAV:   1    -0.859620718492E+02   -0.19557E-02   -0.42247E-01  1440   0.233E+00    0.118E-01
DAV:   2    -0.859623802036E+02   -0.30835E-03   -0.40526E-03  1800   0.232E-01    0.577E-02
DAV:   3    -0.859623443892E+02    0.35814E-04   -0.55850E-05  1308   0.372E-02    0.250E-02
DAV:   4    -0.859623430079E+02    0.13813E-05   -0.39941E-05   768   0.281E-02    0.546E-03
DAV:   5    -0.859623433138E+02   -0.30584E-06   -0.59261E-06   720   0.101E-02    0.221E-03
DAV:   6    -0.859623432953E+02    0.18454E-07   -0.35086E-07   720   0.282E-03
  42 F= -.85962343E+02 E0= -.85962245E+02  d E =-.222939E-02
       N       E                     dE             d eps       ncg     rms          rms(c)
DAV:   1    -0.859663696204E+02   -0.40263E-02   -0.38001E+00  1440   0.699E+00    0.356E-01
DAV:   2    -0.859692437309E+02   -0.28741E-02   -0.38802E-02  1836   0.715E-01    0.172E-01
DAV:   3    -0.859690039287E+02    0.23980E-03   -0.52027E-04  1908   0.113E-01    0.804E-02
DAV:   4    -0.859689853132E+02    0.18616E-04   -0.36368E-04  1752   0.826E-02    0.174E-02
DAV:   5    -0.859689863530E+02   -0.10398E-05   -0.43453E-05  1152   0.259E-02    0.103E-02
DAV:   6    -0.859689864962E+02   -0.14316E-06   -0.31075E-06   936   0.776E-03
  43 F= -.85968986E+02 E0= -.85968892E+02  d E =-.887259E-02
       N       E                     dE             d eps       ncg     rms          rms(c)
DAV:   1    -0.859698426618E+02   -0.85631E-03   -0.15098E+01  1440   0.140E+01    0.740E-01
DAV:   2    -0.859824787803E+02   -0.12636E-01   -0.17475E-01  1812   0.150E+00    0.353E-01
DAV:   3    -0.859814979875E+02    0.98079E-03   -0.22514E-03  1908   0.242E-01    0.184E-01
DAV:   4    -0.859814181837E+02    0.79804E-04   -0.18100E-03  1680   0.190E-01    0.405E-02
DAV:   5    -0.859814252930E+02   -0.71093E-05   -0.27670E-04  1884   0.643E-02    0.245E-02
DAV:   6    -0.859814253308E+02   -0.37859E-07   -0.78611E-06  1068   0.123E-02
  44 F= -.85981425E+02 E0= -.85981334E+02  d E =-.213114E-01
       N       E                     dE             d eps       ncg     rms          rms(c)
DAV:   1    -0.859348019630E+02    0.46623E-01   -0.59236E+01  1440   0.278E+01    0.160E+00
DAV:   2    -0.860035000896E+02   -0.68698E-01   -0.94508E-01  1800   0.342E+00    0.764E-01
DAV:   3    -0.859983999818E+02    0.51001E-02   -0.13189E-02  1908   0.580E-01    0.438E-01
DAV:   4    -0.859981625281E+02    0.23745E-03   -0.10594E-02  1740   0.479E-01    0.116E-01
DAV:   5    -0.859981075699E+02    0.54958E-04   -0.19373E-03  1872   0.183E-01    0.534E-02
DAV:   6    -0.859981094076E+02   -0.18377E-05   -0.74328E-05  1512   0.357E-02
  45 F= -.85998109E+02 E0= -.85998014E+02  d E =-.379955E-01
       N       E                     dE             d eps       ncg     rms          rms(c)
DAV:   1    -0.860152329406E+02   -0.17125E-01   -0.26485E+00  1440   0.603E+00    0.318E-01
DAV:   2    -0.860179619360E+02   -0.27290E-02   -0.33347E-02  1872   0.654E-01    0.162E-01
DAV:   3    -0.860177539497E+02    0.20799E-03   -0.42329E-04  1908   0.110E-01    0.741E-02
DAV:   4    -0.860177441643E+02    0.97854E-05   -0.25619E-04  1776   0.706E-02    0.167E-02
DAV:   5    -0.860177456703E+02   -0.15060E-05   -0.24783E-05  1092   0.204E-02    0.949E-03
DAV:   6    -0.860177458872E+02   -0.21692E-06   -0.25958E-06   960   0.759E-03
  46 F= -.86017746E+02 E0= -.86017629E+02  d E =-.196365E-01
       N       E                     dE             d eps       ncg     rms          rms(c)
DAV:   1    -0.860361072109E+02   -0.18362E-01   -0.23497E+01  1440   0.179E+01    0.989E-01
DAV:   2    -0.860647155015E+02   -0.28608E-01   -0.35039E-01  1824   0.209E+00    0.508E-01
DAV:   3    -0.860627603995E+02    0.19551E-02   -0.46437E-03  1896   0.373E-01    0.267E-01
DAV:   4    -0.860626325796E+02    0.12782E-03   -0.30324E-03  1776   0.252E-01    0.686E-02
DAV:   5    -0.860626337097E+02   -0.11301E-05   -0.43758E-04  1872   0.877E-02    0.311E-02
DAV:   6    -0.860626341160E+02   -0.40632E-06   -0.20180E-05  1212   0.200E-02
  47 F= -.86062634E+02 E0= -.86062423E+02  d E =-.645247E-01
       N       E                     dE             d eps       ncg     rms          rms(c)
DAV:   1    -0.859500800492E+02    0.11255E+00   -0.90895E+01  1440   0.352E+01    0.210E+00
DAV:   2    -0.861113990833E+02   -0.16132E+00   -0.19554E+00  1836   0.472E+00    0.112E+00
DAV:   3    -0.861001227408E+02    0.11276E-01   -0.26574E-02  1920   0.849E-01    0.647E-01
DAV:   4    -0.860996506022E+02    0.47214E-03   -0.21093E-02  1800   0.689E-01    0.192E-01
DAV:   5    -0.860993823624E+02    0.26824E-03   -0.39902E-03  1860   0.274E-01    0.664E-02
DAV:   6    -0.860993973148E+02   -0.14952E-04   -0.19576E-04  1872   0.562E-02
  48 F= -.86099397E+02 E0= -.86098745E+02  d E =-.101288E+00
       N       E                     dE             d eps       ncg     rms          rms(c)
DAV:   1    -0.861087636760E+02   -0.93813E-02   -0.16504E+01  1440   0.151E+01    0.860E-01
DAV:   2    -0.861290571375E+02   -0.20293E-01   -0.26201E-01  1800   0.182E+00    0.455E-01
DAV:   3    -0.861271990347E+02    0.18581E-02   -0.38482E-03  1908   0.327E-01    0.233E-01
DAV:   4    -0.861270151175E+02    0.18392E-03   -0.25081E-03  1752   0.227E-01    0.584E-02
DAV:   5    -0.861270134756E+02    0.16419E-05   -0.36221E-04  1920   0.811E-02    0.266E-02
DAV:   6    -0.861270130012E+02    0.47436E-06   -0.16800E-05  1224   0.185E-02
  49 F= -.86127013E+02 E0= -.86126212E+02  d E =-.276157E-01
       N       E                     dE             d eps       ncg     rms          rms(c)
DAV:   1    -0.860960107996E+02    0.31003E-01   -0.36426E+01  1440   0.227E+01    0.133E+00
DAV:   2    -0.861459941517E+02   -0.49983E-01   -0.64885E-01  1728   0.281E+00    0.706E-01
DAV:   3    -0.861417422662E+02    0.42519E-02   -0.97039E-03  1896   0.515E-01    0.380E-01
DAV:   4    -0.861413969543E+02    0.34531E-03   -0.63645E-03  1752   0.370E-01    0.996E-02
DAV:   5    -0.861413644312E+02    0.32523E-04   -0.10615E-03  1908   0.141E-01    0.401E-02
DAV:   6    -0.861413643388E+02    0.92407E-07   -0.49295E-05  1500   0.308E-02
  50 F= -.86141364E+02 E0= -.86140334E+02  d E =-.419670E-01
       N       E                     dE             d eps       ncg     rms          rms(c)
DAV:   1    -0.861434211637E+02   -0.20567E-02   -0.13126E+01  1440   0.139E+01    0.852E-01
DAV:   2    -0.861599863861E+02   -0.16565E-01   -0.22144E-01  1788   0.169E+00    0.450E-01
DAV:   3    -0.861583808122E+02    0.16056E-02   -0.33236E-03  1872   0.309E-01    0.235E-01
DAV:   4    -0.861582549473E+02    0.12586E-03   -0.23131E-03  1680   0.220E-01    0.549E-02
DAV:   5    -0.861582431211E+02    0.11826E-04   -0.32884E-04  1920   0.800E-02    0.242E-02
DAV:   6    -0.861582433956E+02   -0.27445E-06   -0.17115E-05  1224   0.189E-02
  51 F= -.86158243E+02 E0= -.86157336E+02  d E =-.168791E-01
       N       E                     dE             d eps       ncg     rms          rms(c)
DAV:   1    -0.860653194032E+02    0.92924E-01   -0.70012E+01  1440   0.320E+01    0.208E+00
DAV:   2    -0.861813597988E+02   -0.11604E+00   -0.15388E+00  1776   0.430E+00    0.111E+00
DAV:   3    -0.861711551064E+02    0.10205E-01   -0.24870E-02  1872   0.825E-01    0.625E-01
DAV:   4    -0.861712225661E+02   -0.67460E-04   -0.17217E-02  1800   0.621E-01    0.173E-01
DAV:   5    -0.861710060242E+02    0.21654E-03   -0.32498E-03  1860   0.257E-01    0.586E-02
DAV:   6    -0.861710202023E+02   -0.14178E-04   -0.16964E-04  1860   0.562E-02
  52 F= -.86171020E+02 E0= -.86170360E+02  d E =-.296559E-01
       N       E                     dE             d eps       ncg     rms          rms(c)
DAV:   1    -0.861892428430E+02   -0.18237E-01   -0.10042E+01  1440   0.124E+01    0.877E-01
DAV:   2    -0.862016459208E+02   -0.12403E-01   -0.17368E-01  1764   0.154E+00    0.465E-01
DAV:   3    -0.862003420667E+02    0.13039E-02   -0.30271E-03  1800   0.294E-01    0.248E-01
DAV:   4    -0.862003411659E+02    0.90087E-06   -0.20226E-03  1632   0.204E-01    0.553E-02
DAV:   5    -0.862003160061E+02    0.25160E-04   -0.29090E-04  1872   0.779E-02    0.214E-02
DAV:   6    -0.862003176813E+02   -0.16751E-05   -0.20090E-05  1248   0.202E-02
  53 F= -.86200318E+02 E0= -.86199691E+02  d E =-.292975E-01
       N       E                     dE             d eps       ncg     rms          rms(c)
DAV:   1    -0.861865702007E+02    0.13746E-01   -0.26449E+01  1440   0.199E+01    0.145E+00
DAV:   2    -0.862215927257E+02   -0.35023E-01   -0.49518E-01  1740   0.255E+00    0.773E-01
DAV:   3    -0.862180477971E+02    0.35449E-02   -0.91247E-03  1800   0.504E-01    0.424E-01
DAV:   4    -0.862181549791E+02   -0.10718E-03   -0.61138E-03  1596   0.359E-01    0.102E-01
DAV:   5    -0.862180483361E+02    0.10664E-03   -0.99722E-04  1884   0.144E-01    0.357E-02
DAV:   6    -0.862180536266E+02   -0.52905E-05   -0.64340E-05  1500   0.352E-02
  54 F= -.86218054E+02 E0= -.86217490E+02  d E =-.470334E-01
       N       E                     dE             d eps       ncg     rms          rms(c)
DAV:   1    -0.862449570126E+02   -0.26909E-01   -0.13946E+01  1440   0.142E+01    0.970E-01
DAV:   2    -0.862615465225E+02   -0.16590E-01   -0.23055E-01  1680   0.173E+00    0.521E-01
DAV:   3    -0.862599577006E+02    0.15888E-02   -0.40242E-03  1800   0.322E-01    0.270E-01
DAV:   4    -0.862599942896E+02   -0.36589E-04   -0.26133E-03  1572   0.228E-01    0.598E-02
DAV:   5    -0.862599716420E+02    0.22648E-04   -0.41032E-04  1836   0.896E-02    0.247E-02
DAV:   6    -0.862599749116E+02   -0.32695E-05   -0.24305E-05  1320   0.234E-02
  55 F= -.86259975E+02 E0= -.86259156E+02  d E =-.419213E-01
       N       E                     dE             d eps       ncg     rms          rms(c)
DAV:   1    -0.861994955754E+02    0.60476E-01   -0.74696E+01  1440   0.326E+01    0.230E+00
DAV:   2    -0.863084906656E+02   -0.10900E+00   -0.15258E+00  1716   0.427E+00    0.126E+00
DAV:   3    -0.862985941974E+02    0.98965E-02   -0.27928E-02  1800   0.844E-01    0.699E-01
DAV:   4    -0.863002466674E+02   -0.16525E-02   -0.18462E-02  1692   0.629E-01    0.180E-01
DAV:   5    -0.862999639241E+02    0.28274E-03   -0.39478E-03  1812   0.277E-01    0.601E-02
DAV:   6    -0.862999809288E+02   -0.17005E-04   -0.20309E-04  1824   0.649E-02
  56 F= -.86299981E+02 E0= -.86298499E+02  d E =-.819273E-01
       N       E                     dE             d eps       ncg     rms          rms(c)
DAV:   1    -0.863207660120E+02   -0.20802E-01   -0.72335E+00  1440   0.102E+01    0.689E-01
DAV:   2    -0.863299088569E+02   -0.91428E-02   -0.11841E-01  1704   0.124E+00    0.377E-01
DAV:   3    -0.863292032478E+02    0.70561E-03   -0.18575E-03  1812   0.218E-01    0.190E-01
DAV:   4    -0.863292652210E+02   -0.61973E-04   -0.11630E-03  1644   0.154E-01    0.382E-02
DAV:   5    -0.863292570902E+02    0.81308E-05   -0.17749E-04  1800   0.588E-02    0.169E-02
DAV:   6    -0.863292582705E+02   -0.11803E-05   -0.10820E-05  1116   0.161E-02
  57 F= -.86329258E+02 E0= -.86327368E+02  d E =-.292773E-01
       N       E                     dE             d eps       ncg     rms          rms(c)
DAV:   1    -0.862726617090E+02    0.56595E-01   -0.61553E+01  1440   0.296E+01    0.206E+00
DAV:   2    -0.863690795164E+02   -0.96418E-01   -0.12576E+00  1704   0.388E+00    0.112E+00
DAV:   3    -0.863628291413E+02    0.62504E-02   -0.20201E-02  1824   0.714E-01    0.636E-01
DAV:   4    -0.863645191594E+02   -0.16900E-02   -0.14040E-02  1644   0.548E-01    0.152E-01
DAV:   5    -0.863643026522E+02    0.21651E-03   -0.29212E-03  1824   0.239E-01    0.533E-02
DAV:   6    -0.863643195786E+02   -0.16926E-04   -0.15076E-04  1728   0.556E-02
  58 F= -.86364320E+02 E0= -.86361471E+02  d E =-.643386E-01
       N       E                     dE             d eps       ncg     rms          rms(c)
DAV:   1    -0.863641995008E+02    0.10315E-03   -0.19906E-01  1440   0.169E+00    0.114E-01
DAV:   2    -0.863644186270E+02   -0.21913E-03   -0.28879E-03  1776   0.195E-01    0.609E-02
DAV:   3    -0.863644035725E+02    0.15055E-04   -0.40152E-05  1200   0.323E-02    0.284E-02
DAV:   4    -0.863644051912E+02   -0.16187E-05   -0.28365E-05  1032   0.243E-02    0.500E-03
DAV:   5    -0.863644049456E+02    0.24562E-06   -0.40592E-06   972   0.942E-03    0.240E-03
DAV:   6    -0.863644050108E+02   -0.65242E-07   -0.33263E-07   936   0.285E-03
  59 F= -.86364405E+02 E0= -.86361589E+02  d E =-.644241E-01
       N       E                     dE             d eps       ncg     rms          rms(c)
DAV:   1    -0.863730695178E+02   -0.86646E-02   -0.16189E-01  1440   0.166E+00    0.198E-01
DAV:   2    -0.863725332915E+02    0.53623E-03   -0.31635E-03  1872   0.261E-01    0.807E-02
DAV:   3    -0.863725010033E+02    0.32288E-04   -0.39672E-04  1692   0.873E-02    0.371E-02
DAV:   4    -0.863724968852E+02    0.41181E-05   -0.11411E-04  1296   0.559E-02    0.196E-02
DAV:   5    -0.863724926447E+02    0.42406E-05   -0.26130E-05   972   0.240E-02    0.435E-03
DAV:   6    -0.863724929203E+02   -0.27565E-06   -0.62606E-06   876   0.112E-02
  60 F= -.86372493E+02 E0= -.86369592E+02  d E =-.808791E-02
       N       E                     dE             d eps       ncg     rms          rms(c)
DAV:   1    -0.863810563710E+02   -0.85637E-02   -0.63758E-01  1440   0.328E+00    0.392E-01
DAV:   2    -0.863789769062E+02    0.20795E-02   -0.12253E-02  1896   0.516E-01    0.163E-01
DAV:   3    -0.863788468013E+02    0.13010E-03   -0.17122E-03  1680   0.181E-01    0.740E-02
DAV:   4    -0.863788290043E+02    0.17797E-04   -0.50122E-04  1896   0.113E-01    0.419E-02
DAV:   5    -0.863788091965E+02    0.19808E-04   -0.10803E-04  1200   0.481E-02    0.834E-03
DAV:   6    -0.863788106782E+02   -0.14817E-05   -0.25175E-05   984   0.220E-02
  61 F= -.86378811E+02 E0= -.86375799E+02  d E =-.144057E-01
       N       E                     dE             d eps       ncg     rms          rms(c)
DAV:   1    -0.863863640031E+02   -0.75548E-02   -0.62024E-01  1440   0.319E+00    0.253E-01
DAV:   2    -0.863862370528E+02    0.12695E-03   -0.12203E-02  1848   0.436E-01    0.120E-01
DAV:   3    -0.863859840049E+02    0.25305E-03   -0.75606E-04  1788   0.122E-01    0.441E-02
DAV:   4    -0.863859568110E+02    0.27194E-04   -0.14112E-04  1596   0.664E-02    0.170E-02
DAV:   5    -0.863859561351E+02    0.67591E-06   -0.30379E-05  1068   0.256E-02    0.643E-03
DAV:   6    -0.863859557780E+02    0.35711E-06   -0.48506E-06   948   0.108E-02
  62 F= -.86385956E+02 E0= -.86382947E+02  d E =-.714510E-02
       N       E                     dE             d eps       ncg     rms          rms(c)
DAV:   1    -0.863904174104E+02   -0.44613E-02   -0.12442E+00  1440   0.451E+00    0.356E-01
DAV:   2    -0.863901979512E+02    0.21946E-03   -0.24527E-02  1848   0.617E-01    0.170E-01
DAV:   3    -0.863897019626E+02    0.49599E-03   -0.15355E-03  1776   0.173E-01    0.624E-02
DAV:   4    -0.863896504207E+02    0.51542E-04   -0.29150E-04  1908   0.936E-02    0.247E-02
DAV:   5    -0.863896477223E+02    0.26984E-05   -0.50158E-05  1176   0.316E-02    0.895E-03
DAV:   6    -0.863896472235E+02    0.49879E-06   -0.90438E-06  1116   0.142E-02
  63 F= -.86389647E+02 E0= -.86386659E+02  d E =-.108365E-01
       N       E                     dE             d eps       ncg     rms          rms(c)
DAV:   1    -0.863970224037E+02   -0.73747E-02   -0.94238E-01  1440   0.395E+00    0.265E-01
DAV:   2    -0.863973680266E+02   -0.34562E-03   -0.17213E-02  1896   0.510E-01    0.147E-01
DAV:   3    -0.863968547324E+02    0.51329E-03   -0.12069E-03  1836   0.163E-01    0.375E-02
DAV:   4    -0.863968459236E+02    0.88087E-05   -0.17959E-04  1896   0.672E-02    0.149E-02
DAV:   5    -0.863968447271E+02    0.11965E-05   -0.10038E-05  1212   0.150E-02    0.800E-03
DAV:   6    -0.863968437880E+02    0.93914E-06   -0.26802E-06  1152   0.918E-03
  64 F= -.86396844E+02 E0= -.86393811E+02  d E =-.719656E-02
       N       E                     dE             d eps       ncg     rms          rms(c)
DAV:   1    -0.864030534925E+02   -0.62088E-02   -0.37816E+00  1440   0.790E+00    0.530E-01
DAV:   2    -0.864047132503E+02   -0.16598E-02   -0.70610E-02  1896   0.103E+00    0.295E-01
DAV:   3    -0.864026451121E+02    0.20681E-02   -0.48360E-03  1824   0.325E-01    0.774E-02
DAV:   4    -0.864026092343E+02    0.35878E-04   -0.70850E-04  1932   0.137E-01    0.301E-02
DAV:   5    -0.864026066314E+02    0.26029E-05   -0.48717E-05  1344   0.331E-02    0.163E-02
DAV:   6    -0.864026034785E+02    0.31529E-05   -0.11616E-05  1536   0.187E-02
  65 F= -.86402603E+02 E0= -.86399512E+02  d E =-.129563E-01
       N       E                     dE             d eps       ncg     rms          rms(c)
DAV:   1    -0.864124360229E+02   -0.98294E-02   -0.11784E+00  1440   0.463E+00    0.346E-01
DAV:   2    -0.864119860279E+02    0.45000E-03   -0.18026E-02  1920   0.561E-01    0.197E-01
DAV:   3    -0.864110565486E+02    0.92948E-03   -0.20276E-03  1860   0.217E-01    0.403E-02
DAV:   4    -0.864110626856E+02   -0.61370E-05   -0.25814E-04  1920   0.770E-02    0.202E-02
DAV:   5    -0.864110592503E+02    0.34353E-05   -0.10513E-05  1212   0.161E-02    0.968E-03
DAV:   6    -0.864110591368E+02    0.11351E-06   -0.50294E-06  1152   0.123E-02
  66 F= -.86411059E+02 E0= -.86407955E+02  d E =-.845566E-02
       N       E                     dE             d eps       ncg     rms          rms(c)
DAV:   1    -0.864161378321E+02   -0.50786E-02   -0.14074E+00  1440   0.507E+00    0.379E-01
DAV:   2    -0.864155872492E+02    0.55058E-03   -0.21461E-02  1920   0.616E-01    0.215E-01
DAV:   3    -0.864144772409E+02    0.11100E-02   -0.24012E-03  1824   0.238E-01    0.447E-02
DAV:   4    -0.864144840441E+02   -0.68033E-05   -0.31200E-04  1920   0.850E-02    0.220E-02
DAV:   5    -0.864144798365E+02    0.42076E-05   -0.13324E-05  1164   0.181E-02    0.101E-02
DAV:   6    -0.864144798380E+02   -0.15002E-08   -0.55703E-06  1152   0.130E-02
  67 F= -.86414480E+02 E0= -.86411366E+02  d E =-.118764E-01
       N       E                     dE             d eps       ncg     rms          rms(c)
DAV:   1    -0.864195376790E+02   -0.50578E-02   -0.34337E-01  1464   0.244E+00    0.161E-01
DAV:   2    -0.864197610260E+02   -0.22335E-03   -0.49861E-03  1920   0.293E-01    0.938E-02
DAV:   3    -0.864196971688E+02    0.63857E-04   -0.26814E-04  1800   0.834E-02    0.309E-02
DAV:   4    -0.864196959418E+02    0.12270E-05   -0.43153E-05  1272   0.329E-02    0.118E-02
DAV:   5    -0.864196973446E+02   -0.14028E-05   -0.91168E-06  1116   0.148E-02    0.416E-03
DAV:   6    -0.864196973408E+02    0.37526E-08   -0.14027E-06  1020   0.698E-03
  68 F= -.86419697E+02 E0= -.86416618E+02  d E =-.521750E-02
       N       E                     dE             d eps       ncg     rms          rms(c)
DAV:   1    -0.864223862655E+02   -0.26889E-02   -0.97307E-01  1440   0.412E+00    0.269E-01
DAV:   2    -0.864230685009E+02   -0.68224E-03   -0.14355E-02  1920   0.495E-01    0.158E-01
DAV:   3    -0.864228798055E+02    0.18870E-03   -0.73801E-04  1764   0.140E-01    0.523E-02
DAV:   4    -0.864228765382E+02    0.32673E-05   -0.12990E-04  1836   0.547E-02    0.196E-02
DAV:   5    -0.864228788294E+02   -0.22912E-05   -0.15793E-05  1140   0.191E-02    0.671E-03
DAV:   6    -0.864228788064E+02    0.23061E-07   -0.26587E-06  1080   0.927E-03
  69 F= -.86422879E+02 E0= -.86419936E+02  d E =-.839897E-02
       N       E                     dE             d eps       ncg     rms          rms(c)
DAV:   1    -0.864250080556E+02   -0.21292E-02   -0.62827E-02  1452   0.104E+00    0.623E-02
DAV:   2    -0.864250575880E+02   -0.49532E-04   -0.86684E-04  1920   0.120E-01    0.379E-02
DAV:   3    -0.864250444348E+02    0.13153E-04   -0.37819E-05  1164   0.344E-02    0.120E-02
DAV:   4    -0.864250447322E+02   -0.29739E-06   -0.11555E-05  1044   0.150E-02    0.484E-03
DAV:   5    -0.864250446061E+02    0.12602E-06   -0.18196E-06   936   0.670E-03    0.185E-03
DAV:   6    -0.864250445614E+02    0.44722E-07   -0.23604E-07   900   0.275E-03
  70 F= -.86425045E+02 E0= -.86422130E+02  d E =-.216576E-02
       N       E                     dE             d eps       ncg     rms          rms(c)
DAV:   1    -0.864302703346E+02   -0.52257E-02   -0.56464E-01  1440   0.312E+00    0.187E-01
DAV:   2    -0.864307217317E+02   -0.45140E-03   -0.78339E-03  1920   0.358E-01    0.114E-01
DAV:   3    -0.864306145998E+02    0.10713E-03   -0.35805E-04  1776   0.102E-01    0.376E-02
DAV:   4    -0.864306148927E+02   -0.29292E-06   -0.81694E-05  1512   0.397E-02    0.139E-02
DAV:   5    -0.864306143978E+02    0.49490E-06   -0.12275E-05  1128   0.168E-02    0.559E-03
DAV:   6    -0.864306140419E+02    0.35593E-06   -0.19523E-06  1044   0.811E-03
  71 F= -.86430614E+02 E0= -.86427802E+02  d E =-.773524E-02
       N       E                     dE             d eps       ncg     rms          rms(c)
DAV:   1    -0.864357041034E+02   -0.50897E-02   -0.22571E+00  1440   0.622E+00    0.373E-01
DAV:   2    -0.864376409312E+02   -0.19368E-02   -0.32009E-02  1920   0.719E-01    0.227E-01
DAV:   3    -0.864371668322E+02    0.47410E-03   -0.12898E-03  1740   0.195E-01    0.805E-02
DAV:   4    -0.864371714407E+02   -0.46085E-05   -0.36086E-04  1896   0.819E-02    0.280E-02
DAV:   5    -0.864371658320E+02    0.56087E-05   -0.43684E-05  1404   0.307E-02    0.112E-02
DAV:   6    -0.864371646975E+02    0.11345E-05   -0.72866E-06  1212   0.152E-02
  72 F= -.86437165E+02 E0= -.86434623E+02  d E =-.142859E-01
       N       E                     dE             d eps       ncg     rms          rms(c)
DAV:   1    -0.864375038962E+02   -0.33806E-03   -0.49202E-01  1440   0.290E+00    0.174E-01
DAV:   2    -0.864379359853E+02   -0.43209E-03   -0.70478E-03  1920   0.336E-01    0.106E-01
DAV:   3    -0.864378314390E+02    0.10455E-03   -0.24661E-04  1740   0.855E-02    0.378E-02
DAV:   4    -0.864378294503E+02    0.19887E-05   -0.78607E-05  1572   0.389E-02    0.119E-02
DAV:   5    -0.864378283509E+02    0.10994E-05   -0.10403E-05  1152   0.158E-02    0.517E-03
DAV:   6    -0.864378279844E+02    0.36652E-06   -0.17584E-06  1116   0.733E-03
  73 F= -.86437828E+02 E0= -.86435436E+02  d E =-.149492E-01
       N       E                     dE             d eps       ncg     rms          rms(c)
DAV:   1    -0.864443586106E+02   -0.65303E-02   -0.26129E-01  1440   0.205E+00    0.127E-01
DAV:   2    -0.864446138536E+02   -0.25524E-03   -0.47708E-03  1800   0.260E-01    0.832E-02
DAV:   3    -0.864445262909E+02    0.87563E-04   -0.17388E-04  1812   0.685E-02    0.265E-02
DAV:   4    -0.864445287302E+02   -0.24393E-05   -0.53464E-05  1164   0.314E-02    0.771E-03
DAV:   5    -0.864445290268E+02   -0.29656E-06   -0.65098E-06  1032   0.114E-02    0.172E-03
DAV:   6    -0.864445290841E+02   -0.57321E-07   -0.61456E-07   876   0.398E-03
  74 F= -.86444529E+02 E0= -.86442075E+02  d E =-.670110E-02
       N       E                     dE             d eps       ncg     rms          rms(c)
DAV:   1    -0.864479465545E+02   -0.34175E-02   -0.58618E-01  1440   0.308E+00    0.192E-01
DAV:   2    -0.864484974428E+02   -0.55089E-03   -0.10697E-02  1788   0.390E-01    0.125E-01
DAV:   3    -0.864483021529E+02    0.19529E-03   -0.39132E-04  1824   0.103E-01    0.404E-02
DAV:   4    -0.864483101136E+02   -0.79607E-05   -0.13006E-04  1860   0.477E-02    0.119E-02
DAV:   5    -0.864483096832E+02    0.43047E-06   -0.11893E-05  1116   0.151E-02    0.319E-03
DAV:   6    -0.864483097125E+02   -0.29295E-07   -0.13048E-06   984   0.603E-03
  75 F= -.86448310E+02 E0= -.86445769E+02  d E =-.104817E-01
       N       E                     dE             d eps       ncg     rms          rms(c)
DAV:   1    -0.864530911083E+02   -0.47814E-02   -0.56376E-02  1440   0.107E+00    0.112E-01
DAV:   2    -0.864530037715E+02    0.87337E-04   -0.11189E-03  1908   0.152E-01    0.589E-02
DAV:   3    -0.864529678573E+02    0.35914E-04   -0.10753E-04  1248   0.484E-02    0.202E-02
DAV:   4    -0.864529657092E+02    0.21481E-05   -0.22862E-05  1044   0.293E-02    0.559E-03
DAV:   5    -0.864529661837E+02   -0.47448E-06   -0.49668E-06   936   0.103E-02    0.270E-03
DAV:   6    -0.864529662431E+02   -0.59445E-07   -0.10845E-06   756   0.546E-03
  76 F= -.86452966E+02 E0= -.86450337E+02  d E =-.465653E-02
       N       E                     dE             d eps       ncg     rms          rms(c)
DAV:   1    -0.864601894797E+02   -0.72233E-02   -0.50455E-01  1440   0.320E+00    0.342E-01
DAV:   2    -0.864593331855E+02    0.85629E-03   -0.10105E-02  1908   0.458E-01    0.178E-01
DAV:   3    -0.864590017457E+02    0.33144E-03   -0.10253E-03  1740   0.145E-01    0.615E-02
DAV:   4    -0.864589717245E+02    0.30021E-04   -0.19235E-04  1656   0.838E-02    0.210E-02
DAV:   5    -0.864589709241E+02    0.80042E-06   -0.41971E-05  1140   0.297E-02    0.816E-03
DAV:   6    -0.864589711914E+02   -0.26732E-06   -0.13469E-05  1044   0.175E-02
  77 F= -.86458971E+02 E0= -.86456112E+02  d E =-.106615E-01
       N       E                     dE             d eps       ncg     rms          rms(c)
DAV:   1    -0.864626647022E+02   -0.36938E-02   -0.64102E-02  1440   0.103E+00    0.912E-02
DAV:   2    -0.864626370565E+02    0.27646E-04   -0.10100E-03  1920   0.137E-01    0.484E-02
DAV:   3    -0.864626068136E+02    0.30243E-04   -0.73004E-05  1224   0.420E-02    0.163E-02
DAV:   4    -0.864626052677E+02    0.15459E-05   -0.19647E-05   948   0.246E-02    0.459E-03
DAV:   5    -0.864626054010E+02   -0.13333E-06   -0.31711E-06   900   0.846E-03    0.238E-03
DAV:   6    -0.864626052742E+02    0.12682E-06   -0.56351E-07   828   0.392E-03
  78 F= -.86462605E+02 E0= -.86459705E+02  d E =-.363408E-02
       N       E                     dE             d eps       ncg     rms          rms(c)
DAV:   1    -0.864713579307E+02   -0.87525E-02   -0.57412E-01  1440   0.307E+00    0.277E-01
DAV:   2    -0.864710616239E+02    0.29631E-03   -0.91484E-03  1908   0.414E-01    0.145E-01
DAV:   3    -0.864708094412E+02    0.25218E-03   -0.64609E-04  1800   0.122E-01    0.516E-02
DAV:   4    -0.864707945899E+02    0.14851E-04   -0.14132E-04  1668   0.675E-02    0.142E-02
DAV:   5    -0.864707952301E+02   -0.64013E-06   -0.24490E-05  1164   0.228E-02    0.687E-03
DAV:   6    -0.864707943951E+02    0.83498E-06   -0.52442E-06  1020   0.116E-02
  79 F= -.86470794E+02 E0= -.86467789E+02  d E =-.118232E-01
       N       E                     dE             d eps       ncg     rms          rms(c)
DAV:   1    -0.864765224940E+02   -0.57273E-02   -0.22748E+00  1440   0.615E+00    0.559E-01
DAV:   2    -0.864751285303E+02    0.13940E-02   -0.36579E-02  1884   0.833E-01    0.287E-01
DAV:   3    -0.864740612558E+02    0.10673E-02   -0.24562E-03  1776   0.240E-01    0.107E-01
DAV:   4    -0.864739885242E+02    0.72732E-04   -0.65486E-04  1896   0.141E-01    0.283E-02
DAV:   5    -0.864739881725E+02    0.35172E-06   -0.89749E-05  1584   0.409E-02    0.135E-02
DAV:   6    -0.864739843703E+02    0.38021E-05   -0.14604E-05  1332   0.194E-02
  80 F= -.86473984E+02 E0= -.86470864E+02  d E =-.150132E-01
       N       E                     dE             d eps       ncg     rms          rms(c)
DAV:   1    -0.864752307439E+02   -0.12426E-02   -0.25732E-01  1440   0.208E+00    0.184E-01
DAV:   2    -0.864751075288E+02    0.12322E-03   -0.40717E-03  1908   0.280E-01    0.980E-02
DAV:   3    -0.864749810035E+02    0.12653E-03   -0.32235E-04  1788   0.847E-02    0.336E-02
DAV:   4    -0.864749704574E+02    0.10546E-04   -0.54528E-05  1248   0.449E-02    0.101E-02
DAV:   5    -0.864749711396E+02   -0.68219E-06   -0.15965E-05   912   0.177E-02    0.488E-03
DAV:   6    -0.864749706830E+02    0.45658E-06   -0.25310E-06   768   0.850E-03
  81 F= -.86474971E+02 E0= -.86471874E+02  d E =-.159995E-01
       N       E                     dE             d eps       ncg     rms          rms(c)
DAV:   1    -0.864812790844E+02   -0.63079E-02   -0.65804E-01  1440   0.316E+00    0.214E-01
DAV:   2    -0.864817355476E+02   -0.45646E-03   -0.11429E-02  1824   0.414E-01    0.120E-01
DAV:   3    -0.864816085826E+02    0.12696E-03   -0.42212E-04  1836   0.992E-02    0.514E-02
DAV:   4    -0.864816072283E+02    0.13544E-05   -0.11366E-04  1848   0.480E-02    0.129E-02
DAV:   5    -0.864816074236E+02   -0.19530E-06   -0.88338E-06  1200   0.165E-02    0.438E-03
DAV:   6    -0.864816071026E+02    0.32100E-06   -0.19433E-06  1092   0.653E-03
  82 F= -.86481607E+02 E0= -.86478515E+02  d E =-.663642E-02
       N       E                     dE             d eps       ncg     rms          rms(c)
DAV:   1    -0.864849657286E+02   -0.33583E-02   -0.18234E+00  1440   0.526E+00    0.354E-01
DAV:   2    -0.864862367197E+02   -0.12710E-02   -0.31474E-02  1872   0.689E-01    0.200E-01
DAV:   3    -0.864858618983E+02    0.37482E-03   -0.12213E-03  1884   0.169E-01    0.839E-02
DAV:   4    -0.864858630487E+02   -0.11504E-05   -0.31013E-04  1920   0.784E-02    0.218E-02
DAV:   5    -0.864858640091E+02   -0.96044E-06   -0.20878E-05  1320   0.256E-02    0.728E-03
DAV:   6    -0.864858630484E+02    0.96066E-06   -0.53049E-06  1248   0.109E-02
  83 F= -.86485863E+02 E0= -.86482779E+02  d E =-.108924E-01
       N       E                     dE             d eps       ncg     rms          rms(c)
DAV:   1    -0.864916345217E+02   -0.57705E-02   -0.62655E-01  1464   0.313E+00    0.280E-01
DAV:   2    -0.864918205078E+02   -0.18599E-03   -0.13192E-02  1884   0.467E-01    0.132E-01
DAV:   3    -0.864917581935E+02    0.62314E-04   -0.52242E-04  1824   0.109E-01    0.644E-02
DAV:   4    -0.864917587811E+02   -0.58752E-06   -0.11389E-04  1512   0.557E-02    0.154E-02
DAV:   5    -0.864917599448E+02   -0.11637E-05   -0.17960E-05  1176   0.237E-02    0.567E-03
DAV:   6    -0.864917600744E+02   -0.12969E-06   -0.61543E-06  1032   0.126E-02
  84 F= -.86491760E+02 E0= -.86488772E+02  d E =-.589703E-02
       N       E                     dE             d eps       ncg     rms          rms(c)
DAV:   1    -0.864925031516E+02   -0.74321E-03   -0.16766E-01  1440   0.162E+00    0.145E-01
DAV:   2    -0.864925552825E+02   -0.52131E-04   -0.35597E-03  1920   0.243E-01    0.682E-02
DAV:   3    -0.864925374381E+02    0.17844E-04   -0.13411E-04  1488   0.564E-02    0.336E-02
DAV:   4    -0.864925376232E+02   -0.18511E-06   -0.33786E-05  1176   0.309E-02    0.739E-03
DAV:   5    -0.864925380782E+02   -0.45498E-06   -0.55414E-06   972   0.128E-02    0.296E-03
DAV:   6    -0.864925380675E+02    0.10614E-07   -0.14796E-06   864   0.652E-03
  85 F= -.86492538E+02 E0= -.86489626E+02  d E =-.667502E-02
       N       E                     dE             d eps       ncg     rms          rms(c)
DAV:   1    -0.864958069284E+02   -0.32689E-02   -0.13973E-01  1440   0.161E+00    0.138E-01
DAV:   2    -0.864958372376E+02   -0.30309E-04   -0.26642E-03  1920   0.228E-01    0.788E-02
DAV:   3    -0.864957481838E+02    0.89054E-04   -0.25035E-04  1524   0.907E-02    0.170E-02
DAV:   4    -0.864957505200E+02   -0.23362E-05   -0.39208E-05  1092   0.311E-02    0.750E-03
DAV:   5    -0.864957510564E+02   -0.53645E-06   -0.54460E-06   924   0.120E-02    0.320E-03
DAV:   6    -0.864957511457E+02   -0.89253E-07   -0.86106E-07   804   0.552E-03
  86 F= -.86495751E+02 E0= -.86492991E+02  d E =-.321308E-02
       N       E                     dE             d eps       ncg     rms          rms(c)
DAV:   1    -0.864985588657E+02   -0.28078E-02   -0.58873E-01  1440   0.330E+00    0.283E-01
DAV:   2    -0.864986824968E+02   -0.12363E-03   -0.11288E-02  1920   0.471E-01    0.161E-01
DAV:   3    -0.864983206600E+02    0.36184E-03   -0.10772E-03  1764   0.185E-01    0.352E-02
DAV:   4    -0.864983282650E+02   -0.76050E-05   -0.13638E-04  1620   0.566E-02    0.151E-02
DAV:   5    -0.864983302505E+02   -0.19855E-05   -0.14933E-05  1224   0.199E-02    0.627E-03
DAV:   6    -0.864983307599E+02   -0.50946E-06   -0.27656E-06  1128   0.972E-03
  87 F= -.86498331E+02 E0= -.86495974E+02  d E =-.579269E-02
       N       E                     dE             d eps       ncg     rms          rms(c)
DAV:   1    -0.865006690167E+02   -0.23388E-02   -0.29114E-01  1440   0.221E+00    0.150E-01
DAV:   2    -0.865009638752E+02   -0.29486E-03   -0.59578E-03  1836   0.300E-01    0.924E-02
DAV:   3    -0.865008402927E+02    0.12358E-03   -0.25347E-04  1836   0.842E-02    0.281E-02
DAV:   4    -0.865008433748E+02   -0.30821E-05   -0.71170E-05  1392   0.383E-02    0.829E-03
DAV:   5    -0.865008435790E+02   -0.20416E-06   -0.81340E-06  1224   0.139E-02    0.198E-03
DAV:   6    -0.865008437705E+02   -0.19155E-06   -0.93517E-07  1044   0.484E-03
  88 F= -.86500844E+02 E0= -.86498516E+02  d E =-.251301E-02
       N       E                     dE             d eps       ncg     rms          rms(c)
DAV:   1    -0.865013675285E+02   -0.52395E-03   -0.19050E-01  1440   0.178E+00    0.121E-01
DAV:   2    -0.865015609390E+02   -0.19341E-03   -0.38851E-03  1848   0.242E-01    0.747E-02
DAV:   3    -0.865014811975E+02    0.79742E-04   -0.16360E-04  1788   0.680E-02    0.228E-02
DAV:   4    -0.865014832044E+02   -0.20068E-05   -0.48171E-05  1260   0.315E-02    0.670E-03
DAV:   5    -0.865014833329E+02   -0.12858E-06   -0.54183E-06  1104   0.114E-02    0.166E-03
DAV:   6    -0.865014834788E+02   -0.14590E-06   -0.63826E-07   924   0.396E-03
  89 F= -.86501483E+02 E0= -.86499181E+02  d E =-.315272E-02
       N       E                     dE             d eps       ncg     rms          rms(c)
DAV:   1    -0.865031979536E+02   -0.17146E-02   -0.55469E-02  1440   0.106E+00    0.119E-01
DAV:   2    -0.865030654875E+02    0.13247E-03   -0.15693E-03  1920   0.184E-01    0.554E-02
DAV:   3    -0.865030217526E+02    0.43735E-04   -0.11069E-04  1440   0.527E-02    0.240E-02
DAV:   4    -0.865030156244E+02    0.61282E-05   -0.33244E-05  1056   0.335E-02    0.518E-03
DAV:   5    -0.865030160580E+02   -0.43352E-06   -0.62677E-06   888   0.123E-02    0.268E-03
DAV:   6    -0.865030161115E+02   -0.53557E-07   -0.10019E-06   864   0.557E-03
  90 F= -.86503016E+02 E0= -.86500567E+02  d E =-.153263E-02
       N       E                     dE             d eps       ncg     rms          rms(c)
DAV:   1    -0.865035963489E+02   -0.58029E-03   -0.43456E-02  1440   0.934E-01    0.105E-01
DAV:   2    -0.865034931651E+02    0.10318E-03   -0.12323E-03  1908   0.163E-01    0.491E-02
DAV:   3    -0.865034586248E+02    0.34540E-04   -0.86581E-05  1308   0.469E-02    0.211E-02
DAV:   4    -0.865034539969E+02    0.46279E-05   -0.26254E-05   996   0.296E-02    0.439E-03
DAV:   5    -0.865034543690E+02   -0.37206E-06   -0.46354E-06   900   0.107E-02    0.232E-03
DAV:   6    -0.865034544172E+02   -0.48156E-07   -0.73308E-07   792   0.480E-03
  91 F= -.86503454E+02 E0= -.86500882E+02  d E =-.197094E-02
       N       E                     dE             d eps       ncg     rms          rms(c)
DAV:   1    -0.865046412152E+02   -0.11868E-02   -0.34919E-02  1476   0.915E-01    0.899E-02
DAV:   2    -0.865045534747E+02    0.87741E-04   -0.74487E-04  1920   0.140E-01    0.470E-02
DAV:   3    -0.865045142003E+02    0.39274E-04   -0.88922E-05  1260   0.487E-02    0.154E-02
DAV:   4    -0.865045110725E+02    0.31278E-05   -0.17243E-05  1092   0.245E-02    0.453E-03
DAV:   5    -0.865045109884E+02    0.84066E-07   -0.30160E-06   960   0.884E-03    0.201E-03
DAV:   6    -0.865045109244E+02    0.63954E-07   -0.65693E-07   864   0.477E-03
  92 F= -.86504511E+02 E0= -.86501808E+02  d E =-.105651E-02
       N       E                     dE             d eps       ncg     rms          rms(c)
DAV:   1    -0.865048620084E+02   -0.35102E-03   -0.22923E-02  1500   0.741E-01    0.727E-02
DAV:   2    -0.865048050625E+02    0.56946E-04   -0.48975E-04  1920   0.114E-01    0.380E-02
DAV:   3    -0.865047790955E+02    0.25967E-04   -0.58044E-05  1236   0.394E-02    0.124E-02
DAV:   4    -0.865047769546E+02    0.21409E-05   -0.11273E-05  1068   0.198E-02    0.365E-03
DAV:   5    -0.865047768673E+02    0.87302E-07   -0.19621E-06   900   0.714E-03    0.163E-03
DAV:   6    -0.865047768074E+02    0.59890E-07   -0.42776E-07   900   0.385E-03
  93 F= -.86504777E+02 E0= -.86501979E+02  d E =-.132239E-02
       N       E                     dE             d eps       ncg     rms          rms(c)
DAV:   1    -0.865055163796E+02   -0.73951E-03   -0.27241E-02  1440   0.777E-01    0.614E-02
DAV:   2    -0.865055328365E+02   -0.16457E-04   -0.62340E-04  1908   0.113E-01    0.394E-02
DAV:   3    -0.865055105163E+02    0.22320E-04   -0.39014E-05  1140   0.336E-02    0.752E-03
DAV:   4    -0.865055113734E+02   -0.85709E-06   -0.96981E-06   924   0.140E-02    0.296E-03
DAV:   5    -0.865055114031E+02   -0.29748E-07   -0.87933E-07   828   0.500E-03    0.931E-04
DAV:   6    -0.865055114335E+02   -0.30342E-07   -0.16452E-07   768   0.204E-03
  94 F= -.86505511E+02 E0= -.86502697E+02  d E =-.734626E-03
       N       E                     dE             d eps       ncg     rms          rms(c)
DAV:   1    -0.865060065554E+02   -0.49515E-03   -0.79526E-02  1440   0.133E+00    0.105E-01
DAV:   2    -0.865060549212E+02   -0.48366E-04   -0.18237E-03  1908   0.193E-01    0.674E-02
DAV:   3    -0.865059905096E+02    0.64412E-04   -0.11866E-04  1632   0.573E-02    0.128E-02
DAV:   4    -0.865059925001E+02   -0.19905E-05   -0.23322E-05  1080   0.211E-02    0.498E-03
DAV:   5    -0.865059926085E+02   -0.10839E-06   -0.21315E-06   948   0.761E-03    0.157E-03
DAV:   6    -0.865059926904E+02   -0.81873E-07   -0.38460E-07   876   0.303E-03
  95 F= -.86505993E+02 E0= -.86503155E+02  d E =-.121588E-02
       N       E                     dE             d eps       ncg     rms          rms(c)
DAV:   1    -0.865063092893E+02   -0.31668E-03   -0.22054E-03  1476   0.234E-01    0.220E-02
DAV:   2    -0.865063074039E+02    0.18854E-05   -0.27292E-05  1128   0.284E-02    0.131E-02
DAV:   3    -0.865063057987E+02    0.16052E-05   -0.54900E-06   888   0.128E-02    0.149E-03
DAV:   4    -0.865063058628E+02   -0.64100E-07   -0.77441E-07   768   0.474E-03    0.836E-04
DAV:   5    -0.865063058907E+02   -0.27952E-07   -0.11699E-07   756   0.181E-03    0.496E-04
DAV:   6    -0.865063058956E+02   -0.48331E-08   -0.27972E-08   756   0.926E-04
  96 F= -.86506306E+02 E0= -.86503471E+02  d E =-.313205E-03
       N       E                     dE             d eps       ncg     rms          rms(c)
DAV:   1    -0.865072210784E+02   -0.91519E-03   -0.19818E-02  1452   0.703E-01    0.660E-02
DAV:   2    -0.865072049220E+02    0.16156E-04   -0.26287E-04  1920   0.851E-02    0.393E-02
DAV:   3    -0.865071877294E+02    0.17193E-04   -0.34102E-05  1272   0.298E-02    0.452E-03
DAV:   4    -0.865071880993E+02   -0.36991E-06   -0.46010E-06   948   0.109E-02    0.245E-03
DAV:   5    -0.865071882746E+02   -0.17527E-06   -0.61675E-07   864   0.398E-03    0.140E-03
DAV:   6    -0.865071883243E+02   -0.49670E-07   -0.14261E-07   828   0.206E-03
  97 F= -.86507188E+02 E0= -.86504364E+02  d E =-.119563E-02
       N       E                     dE             d eps       ncg     rms          rms(c)
DAV:   1    -0.865088351920E+02   -0.16469E-02   -0.79142E-02  1452   0.140E+00    0.132E-01
DAV:   2    -0.865087692268E+02    0.65965E-04   -0.10533E-03  1944   0.170E-01    0.786E-02
DAV:   3    -0.865087003435E+02    0.68883E-04   -0.14618E-04  1764   0.596E-02    0.104E-02
DAV:   4    -0.865087008745E+02   -0.53106E-06   -0.14250E-05  1248   0.192E-02    0.488E-03
DAV:   5    -0.865087014439E+02   -0.56938E-06   -0.17266E-06   996   0.637E-03    0.279E-03
DAV:   6    -0.865087016416E+02   -0.19764E-06   -0.50753E-07   912   0.397E-03
  98 F= -.86508702E+02 E0= -.86505898E+02  d E =-.270895E-02
       N       E                     dE             d eps       ncg     rms          rms(c)
DAV:   1    -0.865113110064E+02   -0.26096E-02   -0.31560E-01  1452   0.281E+00    0.265E-01
DAV:   2    -0.865110410255E+02    0.26998E-03   -0.42306E-03  1944   0.342E-01    0.157E-01
DAV:   3    -0.865107641076E+02    0.27692E-03   -0.58564E-04  1812   0.119E-01    0.216E-02
DAV:   4    -0.865107660574E+02   -0.19499E-05   -0.60306E-05  1368   0.401E-02    0.975E-03
DAV:   5    -0.865107679568E+02   -0.18993E-05   -0.70345E-06  1248   0.129E-02    0.584E-03
DAV:   6    -0.865107687261E+02   -0.76933E-06   -0.23217E-06  1080   0.851E-03
  99 F= -.86510769E+02 E0= -.86508008E+02  d E =-.477604E-02
       N       E                     dE             d eps       ncg     rms          rms(c)
DAV:   1    -0.865135390457E+02   -0.27711E-02   -0.12552E+00  1440   0.561E+00    0.533E-01
DAV:   2    -0.865123980833E+02    0.11410E-02   -0.17169E-02  1944   0.690E-01    0.314E-01
DAV:   3    -0.865112896716E+02    0.11084E-02   -0.23322E-03  1800   0.235E-01    0.466E-02
DAV:   4    -0.865113001052E+02   -0.10434E-04   -0.28807E-04  1896   0.863E-02    0.209E-02
DAV:   5    -0.865113032176E+02   -0.31124E-05   -0.21060E-05  1308   0.224E-02    0.127E-02
DAV:   6    -0.865113071139E+02   -0.38963E-05   -0.13245E-05  1344   0.181E-02
 100 F= -.86511307E+02 E0= -.86508641E+02  d E =-.531442E-02
       N       E                     dE             d eps       ncg     rms          rms(c)
DAV:   1    -0.865131000982E+02   -0.17969E-02   -0.17100E-01  1440   0.201E+00    0.181E-01
DAV:   2    -0.865129379109E+02    0.16219E-03   -0.25398E-03  1920   0.267E-01    0.104E-01
DAV:   3    -0.865128124796E+02    0.12543E-03   -0.28988E-04  1812   0.892E-02    0.268E-02
DAV:   4    -0.865128095473E+02    0.29323E-05   -0.43046E-05  1308   0.332E-02    0.819E-03
DAV:   5    -0.865128100200E+02   -0.47274E-06   -0.48545E-06  1092   0.120E-02    0.415E-03
DAV:   6    -0.865128101368E+02   -0.11681E-06   -0.12642E-06  1008   0.622E-03
 101 F= -.86512810E+02 E0= -.86510181E+02  d E =-.150302E-02
       N       E                     dE             d eps       ncg     rms          rms(c)
DAV:   1    -0.865130773984E+02   -0.26738E-03   -0.43658E-02  1440   0.102E+00    0.910E-02
DAV:   2    -0.865130371706E+02    0.40228E-04   -0.64736E-04  1920   0.134E-01    0.526E-02
DAV:   3    -0.865130036362E+02    0.33534E-04   -0.68431E-05  1272   0.456E-02    0.126E-02
DAV:   4    -0.865130034363E+02    0.19993E-06   -0.14086E-05  1080   0.188E-02    0.409E-03
DAV:   5    -0.865130035666E+02   -0.13035E-06   -0.17290E-06   960   0.663E-03    0.213E-03
DAV:   6    -0.865130035542E+02    0.12390E-07   -0.34310E-07   888   0.321E-03
 102 F= -.86513004E+02 E0= -.86510395E+02  d E =-.169644E-02
       N       E                     dE             d eps       ncg     rms          rms(c)
DAV:   1    -0.865140406064E+02   -0.10370E-02   -0.18459E-02  1440   0.635E-01    0.794E-02
DAV:   2    -0.865139377649E+02    0.10284E-03   -0.60870E-04  1920   0.122E-01    0.337E-02
DAV:   3    -0.865139232261E+02    0.14539E-04   -0.79613E-05  1212   0.434E-02    0.150E-02
DAV:   4    -0.865139201392E+02    0.30869E-05   -0.17327E-05  1056   0.214E-02    0.657E-03
DAV:   5    -0.865139191125E+02    0.10267E-05   -0.31955E-06   972   0.107E-02    0.130E-03
DAV:   6    -0.865139191586E+02   -0.46095E-07   -0.10378E-06   816   0.473E-03
 103 F= -.86513919E+02 E0= -.86511281E+02  d E =-.915604E-03
       N       E                     dE             d eps       ncg     rms          rms(c)
DAV:   1    -0.865142084223E+02   -0.28931E-03   -0.11139E-02  1440   0.493E-01    0.615E-02
DAV:   2    -0.865141468735E+02    0.61549E-04   -0.36827E-04  1920   0.944E-02    0.262E-02
DAV:   3    -0.865141378793E+02    0.89942E-05   -0.48053E-05  1068   0.338E-02    0.116E-02
DAV:   4    -0.865141359521E+02    0.19272E-05   -0.10406E-05   876   0.166E-02    0.506E-03
DAV:   5    -0.865141353073E+02    0.64473E-06   -0.18975E-06   840   0.825E-03    0.102E-03
DAV:   6    -0.865141353294E+02   -0.22047E-07   -0.61668E-07   804   0.366E-03
 104 F= -.86514135E+02 E0= -.86511474E+02  d E =-.113178E-02
       N       E                     dE             d eps       ncg     rms          rms(c)
DAV:   1    -0.865150000228E+02   -0.86472E-03   -0.32051E-02  1440   0.768E-01    0.499E-02
DAV:   2    -0.865150147230E+02   -0.14700E-04   -0.51457E-04  1908   0.980E-02    0.303E-02
DAV:   3    -0.865150048003E+02    0.99227E-05   -0.39479E-05  1128   0.334E-02    0.108E-02
DAV:   4    -0.865150041840E+02    0.61630E-06   -0.84355E-06   936   0.141E-02    0.531E-03
DAV:   5    -0.865150040783E+02    0.10572E-06   -0.17317E-06   852   0.660E-03    0.127E-03
DAV:   6    -0.865150040597E+02    0.18558E-07   -0.27888E-07   804   0.284E-03
 105 F= -.86515004E+02 E0= -.86512333E+02  d E =-.868730E-03
       N       E                     dE             d eps       ncg     rms          rms(c)
DAV:   1    -0.865159285608E+02   -0.92448E-03   -0.21202E-01  1440   0.198E+00    0.128E-01
DAV:   2    -0.865160319179E+02   -0.10336E-03   -0.33804E-03  1908   0.251E-01    0.780E-02
DAV:   3    -0.865159691016E+02    0.62816E-04   -0.28422E-04  1788   0.866E-02    0.284E-02
DAV:   4    -0.865159631398E+02    0.59619E-05   -0.50885E-05  1236   0.352E-02    0.143E-02
DAV:   5    -0.865159627217E+02    0.41808E-06   -0.10677E-05  1128   0.165E-02    0.308E-03
DAV:   6    -0.865159626699E+02    0.51842E-07   -0.16489E-06   996   0.701E-03
 106 F= -.86515963E+02 E0= -.86513270E+02  d E =-.182734E-02
       N       E                     dE             d eps       ncg     rms          rms(c)
DAV:   1    -0.865164350481E+02   -0.47233E-03   -0.82684E-03  1452   0.382E-01    0.242E-02
DAV:   2    -0.865164423811E+02   -0.73331E-05   -0.12265E-04  1704   0.478E-02    0.130E-02
DAV:   3    -0.865164415777E+02    0.80346E-06   -0.38190E-06   924   0.921E-03    0.625E-03
DAV:   4    -0.865164416147E+02   -0.37019E-07   -0.15624E-06   900   0.605E-03    0.105E-03
DAV:   5    -0.865164416414E+02   -0.26675E-07   -0.26543E-07   888   0.255E-03    0.485E-04
DAV:   6    -0.865164416420E+02   -0.64620E-09   -0.28096E-08   816   0.820E-04
 107 F= -.86516442E+02 E0= -.86513751E+02  d E =-.478972E-03
       N       E                     dE             d eps       ncg     rms          rms(c)
DAV:   1    -0.865176644502E+02   -0.12228E-02   -0.74424E-02  1440   0.115E+00    0.720E-02
DAV:   2    -0.865177338077E+02   -0.69358E-04   -0.11183E-03  1908   0.143E-01    0.391E-02
DAV:   3    -0.865177241774E+02    0.96304E-05   -0.19024E-05  1212   0.225E-02    0.191E-02
DAV:   4    -0.865177242611E+02   -0.83680E-07   -0.14381E-05   972   0.178E-02    0.343E-03
DAV:   5    -0.865177242796E+02   -0.18572E-07   -0.25493E-06   900   0.783E-03    0.158E-03
DAV:   6    -0.865177242872E+02   -0.75386E-08   -0.22080E-07   828   0.243E-03
 108 F= -.86517724E+02 E0= -.86515040E+02  d E =-.176162E-02
       N       E                     dE             d eps       ncg     rms          rms(c)
DAV:   1    -0.865193142538E+02   -0.15900E-02   -0.29823E-01  1440   0.229E+00    0.145E-01
DAV:   2    -0.865195952488E+02   -0.28100E-03   -0.45561E-03  1908   0.288E-01    0.784E-02
DAV:   3    -0.865195557047E+02    0.39544E-04   -0.76741E-05  1392   0.452E-02    0.388E-02
DAV:   4    -0.865195554913E+02    0.21342E-06   -0.58960E-05  1248   0.360E-02    0.695E-03
DAV:   5    -0.865195554482E+02    0.43111E-07   -0.10504E-05  1044   0.159E-02    0.320E-03
DAV:   6    -0.865195554700E+02   -0.21862E-07   -0.90255E-07   924   0.488E-03
 109 F= -.86519555E+02 E0= -.86516888E+02  d E =-.359280E-02
       N       E                     dE             d eps       ncg     rms          rms(c)
DAV:   1    -0.865188719491E+02    0.68350E-03   -0.11969E+00  1440   0.459E+00    0.293E-01
DAV:   2    -0.865200168696E+02   -0.11449E-02   -0.18891E-02  1908   0.585E-01    0.157E-01
DAV:   3    -0.865198548794E+02    0.16199E-03   -0.33344E-04  1872   0.913E-02    0.791E-02
DAV:   4    -0.865198486284E+02    0.62510E-05   -0.20991E-04  1920   0.659E-02    0.143E-02
DAV:   5    -0.865198479191E+02    0.70925E-06   -0.35889E-05  1200   0.283E-02    0.646E-03
DAV:   6    -0.865198478761E+02    0.43085E-07   -0.30522E-06   996   0.821E-03
 110 F= -.86519848E+02 E0= -.86517224E+02  d E =-.388521E-02
       N       E                     dE             d eps       ncg     rms          rms(c)
DAV:   1    -0.865200969748E+02   -0.24906E-03   -0.25623E-01  1440   0.213E+00    0.134E-01
DAV:   2    -0.865203451366E+02   -0.24816E-03   -0.39968E-03  1908   0.269E-01    0.723E-02
DAV:   3    -0.865203121620E+02    0.32975E-04   -0.66890E-05  1320   0.417E-02    0.352E-02
DAV:   4    -0.865203113548E+02    0.80714E-06   -0.47042E-05  1020   0.324E-02    0.581E-03
DAV:   5    -0.865203112574E+02    0.97448E-07   -0.81354E-06   864   0.139E-02    0.270E-03
DAV:   6    -0.865203112612E+02   -0.37878E-08   -0.67846E-07   756   0.419E-03
 111 F= -.86520311E+02 E0= -.86517666E+02  d E =-.434859E-02
       N       E                     dE             d eps       ncg     rms          rms(c)
DAV:   1    -0.865216984757E+02   -0.13872E-02   -0.52959E-02  1440   0.105E+00    0.770E-02
DAV:   2    -0.865216971729E+02    0.13028E-05   -0.64683E-04  1908   0.126E-01    0.444E-02
DAV:   3    -0.865216791521E+02    0.18021E-04   -0.37679E-05  1212   0.317E-02    0.158E-02
DAV:   4    -0.865216793622E+02   -0.21017E-06   -0.11322E-05  1092   0.167E-02    0.334E-03
DAV:   5    -0.865216795892E+02   -0.22693E-06   -0.12933E-06   876   0.605E-03    0.116E-03
DAV:   6    -0.865216796441E+02   -0.54946E-07   -0.21335E-07   828   0.240E-03
 112 F= -.86521680E+02 E0= -.86519063E+02  d E =-.136838E-02
[...]
DAV:   3    -0.865321972520E+02    0.70876E-04   -0.11243E-04  1164   0.623E-02    0.218E-02
DAV:   4    -0.865321965663E+02    0.68568E-06   -0.46010E-05  1008   0.344E-02    0.578E-03
DAV:   5    -0.865321963250E+02    0.24135E-06   -0.56604E-06   912   0.138E-02    0.228E-03
DAV:   6    -0.865321962784E+02    0.46616E-07   -0.59702E-07   828   0.486E-03
 119 F= -.86532196E+02 E0= -.86529656E+02  d E =-.826044E-03
       N       E                     dE             d eps       ncg     rms          rms(c)
DAV:   1    -0.865322956604E+02   -0.99335E-04   -0.13949E-02  1452   0.528E-01    0.468E-02
DAV:   2    -0.865322865042E+02    0.91562E-05   -0.26345E-04  1920   0.762E-02    0.270E-02
DAV:   3    -0.865322745827E+02    0.11922E-04   -0.19044E-05  1008   0.257E-02    0.902E-03
DAV:   4    -0.865322744335E+02    0.14917E-06   -0.79196E-06   840   0.143E-02    0.241E-03
DAV:   5    -0.865322743549E+02    0.78621E-07   -0.98915E-07   804   0.576E-03    0.963E-04
DAV:   6    -0.865322743480E+02    0.68508E-08   -0.10537E-07   792   0.205E-03
 120 F= -.86532274E+02 E0= -.86529651E+02  d E =-.904114E-03
       N       E                     dE             d eps       ncg     rms          rms(c)
DAV:   1    -0.865329646157E+02   -0.69026E-03   -0.90844E-02  1440   0.124E+00    0.997E-02
DAV:   2    -0.865330018129E+02   -0.37197E-04   -0.17651E-03  1896   0.181E-01    0.572E-02
DAV:   3    -0.865329537287E+02    0.48084E-04   -0.15451E-04  1488   0.708E-02    0.154E-02
DAV:   4    -0.865329543019E+02   -0.57315E-06   -0.26184E-05   972   0.251E-02    0.633E-03
DAV:   5    -0.865329546577E+02   -0.35583E-06   -0.35262E-06   876   0.921E-03    0.260E-03
DAV:   6    -0.865329546372E+02    0.20499E-07   -0.55937E-07   852   0.452E-03
 121 F= -.86532955E+02 E0= -.86530213E+02  d E =-.680289E-03
       N       E                     dE             d eps       ncg     rms          rms(c)
DAV:   1    -0.865329624103E+02   -0.77526E-05   -0.12227E-03  1512   0.144E-01    0.115E-02
DAV:   2    -0.865329628771E+02   -0.46680E-06   -0.22900E-05   828   0.211E-02    0.659E-03
DAV:   3    -0.865329623304E+02    0.54672E-06   -0.32197E-06   792   0.101E-02    0.158E-03
DAV:   4    -0.865329623308E+02   -0.39336E-09   -0.42630E-07   792   0.337E-03    0.766E-04
DAV:   5    -0.865329623253E+02    0.54872E-08   -0.68969E-08   792   0.132E-03    0.296E-04
DAV:   6    -0.865329623242E+02    0.11050E-08   -0.11275E-08   792   0.617E-04
 122 F= -.86532962E+02 E0= -.86530208E+02  d E =-.687976E-03
       N       E                     dE             d eps       ncg     rms          rms(c)
DAV:   1    -0.865336707165E+02   -0.70839E-03   -0.95675E-02  1440   0.119E+00    0.856E-02
DAV:   2    -0.865338010237E+02   -0.13031E-03   -0.16702E-03  1908   0.152E-01    0.456E-02
DAV:   3    -0.865337890925E+02    0.11931E-04   -0.32156E-05  1236   0.327E-02    0.190E-02
DAV:   4    -0.865337912840E+02   -0.21915E-05   -0.23721E-05  1056   0.235E-02    0.426E-03
DAV:   5    -0.865337912090E+02    0.74956E-07   -0.29583E-06   900   0.850E-03    0.201E-03
DAV:   6    -0.865337913552E+02   -0.14620E-06   -0.28783E-07   792   0.285E-03
 123 F= -.86533791E+02 E0= -.86531047E+02  d E =-.829031E-03
       N       E                     dE             d eps       ncg     rms          rms(c)
DAV:   1    -0.865339448996E+02   -0.15369E-03   -0.62421E-01  1440   0.305E+00    0.218E-01
DAV:   2    -0.865347934325E+02   -0.84853E-03   -0.10903E-02  1908   0.389E-01    0.117E-01
DAV:   3    -0.865347137870E+02    0.79645E-04   -0.22884E-04  1692   0.834E-02    0.476E-02
DAV:   4    -0.865347242161E+02   -0.10429E-04   -0.11968E-04  1548   0.522E-02    0.998E-03
DAV:   5    -0.865347245389E+02   -0.32277E-06   -0.12373E-05  1104   0.170E-02    0.499E-03
DAV:   6    -0.865347249347E+02   -0.39585E-06   -0.17916E-06   948   0.679E-03
 124 F= -.86534725E+02 E0= -.86532009E+02  d E =-.176261E-02
       N       E                     dE             d eps       ncg     rms          rms(c)
DAV:   1    -0.865351956445E+02   -0.47111E-03   -0.22623E-02  1440   0.571E-01    0.457E-02
DAV:   2    -0.865352211912E+02   -0.25547E-04   -0.35891E-04  1860   0.732E-02    0.233E-02
DAV:   3    -0.865352206974E+02    0.49378E-06   -0.68835E-06   876   0.139E-02    0.103E-02
DAV:   4    -0.865352212862E+02   -0.58874E-06   -0.33495E-06   792   0.982E-03    0.160E-03
DAV:   5    -0.865352212788E+02    0.73915E-08   -0.43032E-07   780   0.333E-03    0.815E-04
DAV:   6    -0.865352212669E+02    0.11882E-07   -0.59808E-08   732   0.139E-03
 125 F= -.86535221E+02 E0= -.86532535E+02  d E =-.496332E-03
       N       E                     dE             d eps       ncg     rms          rms(c)
DAV:   1    -0.865359578871E+02   -0.73661E-03   -0.20318E-01  1440   0.171E+00    0.137E-01
DAV:   2    -0.865361880588E+02   -0.23017E-03   -0.31970E-03  1872   0.218E-01    0.700E-02
DAV:   3    -0.865361837951E+02    0.42636E-05   -0.61534E-05  1236   0.415E-02    0.303E-02
DAV:   4    -0.865361898907E+02   -0.60955E-05   -0.28570E-05   924   0.287E-02    0.473E-03
DAV:   5    -0.865361901006E+02   -0.20992E-06   -0.36193E-06   828   0.968E-03    0.240E-03
DAV:   6    -0.865361901094E+02   -0.87898E-08   -0.51213E-07   732   0.410E-03
 126 F= -.86536190E+02 E0= -.86533598E+02  d E =-.146517E-02
       N       E                     dE             d eps       ncg     rms          rms(c)
DAV:   1    -0.865348533643E+02    0.13367E-02   -0.81112E-01  1440   0.342E+00    0.273E-01
DAV:   2    -0.865357890851E+02   -0.93572E-03   -0.12712E-02  1884   0.435E-01    0.140E-01
DAV:   3    -0.865357755181E+02    0.13567E-04   -0.25853E-04  1752   0.827E-02    0.592E-02
DAV:   4    -0.865357979253E+02   -0.22407E-04   -0.87960E-05  1560   0.495E-02    0.964E-03
DAV:   5    -0.865357990082E+02   -0.10829E-05   -0.10804E-05  1008   0.167E-02    0.490E-03
DAV:   6    -0.865357991704E+02   -0.16223E-06   -0.22623E-06   888   0.822E-03
 127 F= -.86535799E+02 E0= -.86533414E+02  d E =-.107424E-02
       N       E                     dE             d eps       ncg     rms          rms(c)
DAV:   1    -0.865360226131E+02   -0.22360E-03   -0.32282E-01  1440   0.216E+00    0.173E-01
DAV:   2    -0.865363910817E+02   -0.36847E-03   -0.51344E-03  1884   0.277E-01    0.885E-02
DAV:   3    -0.865363936481E+02   -0.25665E-05   -0.89699E-05  1368   0.511E-02    0.397E-02
DAV:   4    -0.865364062010E+02   -0.12553E-04   -0.47842E-05   948   0.368E-02    0.598E-03
DAV:   5    -0.865364068618E+02   -0.66084E-06   -0.65816E-06   780   0.134E-02    0.253E-03
DAV:   6    -0.865364070399E+02   -0.17811E-06   -0.74492E-07   732   0.462E-03
 128 F= -.86536407E+02 E0= -.86533889E+02  d E =-.168211E-02
       N       E                     dE             d eps       ncg     rms          rms(c)
DAV:   1    -0.865368460354E+02   -0.43917E-03   -0.66261E-02  1440   0.981E-01    0.729E-02
DAV:   2    -0.865369043278E+02   -0.58292E-04   -0.10788E-03  1896   0.132E-01    0.363E-02
DAV:   3    -0.865368992353E+02    0.50925E-05   -0.35618E-05  1008   0.298E-02    0.165E-02
DAV:   4    -0.865368995243E+02   -0.28899E-06   -0.95527E-06   804   0.152E-02    0.394E-03
DAV:   5    -0.865368996239E+02   -0.99521E-07   -0.12586E-06   780   0.568E-03    0.148E-03
DAV:   6    -0.865368995543E+02    0.69592E-07   -0.28357E-07   732   0.282E-03
 129 F= -.86536900E+02 E0= -.86534413E+02  d E =-.492514E-03
       N       E                     dE             d eps       ncg     rms          rms(c)
DAV:   1    -0.865370289753E+02   -0.12935E-03   -0.85287E-02  1440   0.111E+00    0.827E-02
DAV:   2    -0.865371047594E+02   -0.75784E-04   -0.13952E-03  1896   0.149E-01    0.412E-02
DAV:   3    -0.865370982148E+02    0.65446E-05   -0.46416E-05  1164   0.340E-02    0.187E-02
DAV:   4    -0.865370986203E+02   -0.40544E-06   -0.12337E-05   852   0.173E-02    0.452E-03
DAV:   5    -0.865370987692E+02   -0.14893E-06   -0.16376E-06   780   0.649E-03    0.168E-03
DAV:   6    -0.865370986867E+02    0.82498E-07   -0.37455E-07   756   0.324E-03
 130 F= -.86537099E+02 E0= -.86534649E+02  d E =-.691647E-03
       N       E                     dE             d eps       ncg     rms          rms(c)
DAV:   1    -0.865373946213E+02   -0.29585E-03   -0.13932E-02  1440   0.490E-01    0.398E-02
DAV:   2    -0.865373934900E+02    0.11313E-05   -0.27077E-04  1920   0.701E-02    0.231E-02
DAV:   3    -0.865373806954E+02    0.12795E-04   -0.29220E-05  1020   0.300E-02    0.438E-03
DAV:   4    -0.865373812596E+02   -0.56425E-06   -0.68526E-06   792   0.128E-02    0.246E-03
DAV:   5    -0.865373812571E+02    0.24822E-08   -0.74342E-07   756   0.459E-03    0.746E-04
DAV:   6    -0.865373812569E+02    0.20259E-09   -0.84415E-08   756   0.163E-03
 131 F= -.86537381E+02 E0= -.86534903E+02  d E =-.282570E-03
       N       E                     dE             d eps       ncg     rms          rms(c)
DAV:   1    -0.865376813321E+02   -0.30007E-03   -0.60735E-02  1440   0.102E+00    0.831E-02
DAV:   2    -0.865376752457E+02    0.60864E-05   -0.11754E-03  1920   0.146E-01    0.483E-02
DAV:   3    -0.865376193980E+02    0.55848E-04   -0.13194E-04  1428   0.625E-02    0.923E-03
DAV:   4    -0.865376209981E+02   -0.16001E-05   -0.24239E-05   936   0.239E-02    0.490E-03
DAV:   5    -0.865376208694E+02    0.12872E-06   -0.28618E-06   864   0.888E-03    0.135E-03
DAV:   6    -0.865376208199E+02    0.49482E-07   -0.34276E-07   756   0.342E-03
 132 F= -.86537621E+02 E0= -.86535084E+02  d E =-.522133E-03
       N       E                     dE             d eps       ncg     rms          rms(c)
DAV:   1    -0.865379317960E+02   -0.31093E-03   -0.12462E-02  1440   0.470E-01    0.493E-02
DAV:   2    -0.865379031785E+02    0.28618E-04   -0.24604E-04  1908   0.697E-02    0.225E-02
DAV:   3    -0.865378910047E+02    0.12174E-04   -0.16956E-05   936   0.212E-02    0.943E-03
DAV:   4    -0.865378891522E+02    0.18526E-05   -0.10685E-05   756   0.173E-02    0.219E-03
DAV:   5    -0.865378892730E+02   -0.12083E-06   -0.16064E-06   744   0.603E-03    0.105E-03
DAV:   6    -0.865378892601E+02    0.12865E-07   -0.18378E-07   756   0.211E-03
 133 F= -.86537889E+02 E0= -.86535340E+02  d E =-.268440E-03
       N       E                     dE             d eps       ncg     rms          rms(c)
DAV:   1    -0.865387396414E+02   -0.85037E-03   -0.11234E-01  1440   0.141E+00    0.148E-01
DAV:   2    -0.865384842217E+02    0.25542E-03   -0.22302E-03  1908   0.210E-01    0.676E-02
DAV:   3    -0.865383752759E+02    0.10895E-03   -0.15757E-04  1548   0.640E-02    0.282E-02
DAV:   4    -0.865383572591E+02    0.18017E-04   -0.80082E-05  1212   0.493E-02    0.608E-03
DAV:   5    -0.865383580629E+02   -0.80380E-06   -0.14945E-05  1032   0.179E-02    0.290E-03
DAV:   6    -0.865383579643E+02    0.98669E-07   -0.17601E-06   840   0.621E-03
 134 F= -.86538358E+02 E0= -.86535771E+02  d E =-.737144E-03
       N       E                     dE             d eps       ncg     rms          rms(c)
DAV:   1    -0.865384713535E+02   -0.11329E-03   -0.19455E-02  1440   0.589E-01    0.617E-02
DAV:   2    -0.865384258390E+02    0.45514E-04   -0.38508E-04  1908   0.874E-02    0.281E-02
DAV:   3    -0.865384065521E+02    0.19287E-04   -0.26998E-05   996   0.268E-02    0.117E-02
DAV:   4    -0.865384035856E+02    0.29664E-05   -0.16769E-05   900   0.217E-02    0.275E-03
DAV:   5    -0.865384037445E+02   -0.15881E-06   -0.25359E-06   840   0.758E-03    0.135E-03
DAV:   6    -0.865384037160E+02    0.28427E-07   -0.29419E-07   756   0.267E-03
 135 F= -.86538404E+02 E0= -.86535802E+02  d E =-.782896E-03
       N       E                     dE             d eps       ncg     rms          rms(c)
DAV:   1    -0.865386145697E+02   -0.21083E-03   -0.32935E-02  1440   0.731E-01    0.506E-02
DAV:   2    -0.865386318876E+02   -0.17318E-04   -0.62937E-04  1896   0.100E-01    0.301E-02
DAV:   3    -0.865386144249E+02    0.17463E-04   -0.25768E-05  1008   0.276E-02    0.107E-02
DAV:   4    -0.865386138291E+02    0.59574E-06   -0.13890E-05   900   0.180E-02    0.296E-03
DAV:   5    -0.865386138546E+02   -0.25427E-07   -0.15222E-06   828   0.608E-03    0.931E-04
DAV:   6    -0.865386138406E+02    0.14003E-07   -0.15392E-07   756   0.206E-03
 136 F= -.86538614E+02 E0= -.86536035E+02  d E =-.210125E-03
       N       E                     dE             d eps       ncg     rms          rms(c)
DAV:   1    -0.865386564412E+02   -0.42587E-04   -0.15604E-02  1440   0.503E-01    0.348E-02
DAV:   2    -0.865386645352E+02   -0.80940E-05   -0.29683E-04  1848   0.690E-02    0.207E-02
DAV:   3    -0.865386563364E+02    0.81989E-05   -0.13149E-05   948   0.195E-02    0.731E-03
DAV:   4    -0.865386560682E+02    0.26816E-06   -0.64466E-06   792   0.123E-02    0.201E-03
DAV:   5    -0.865386561002E+02   -0.32009E-07   -0.69632E-07   756   0.410E-03    0.624E-04
DAV:   6    -0.865386560953E+02    0.48856E-08   -0.78079E-08   720   0.141E-03
 137 F= -.86538656E+02 E0= -.86536092E+02  d E =-.252379E-03
       N       E                     dE             d eps       ncg     rms          rms(c)
DAV:   1    -0.865389108312E+02   -0.25473E-03   -0.16704E-02  1440   0.549E-01    0.418E-02
DAV:   2    -0.865389174112E+02   -0.65799E-05   -0.23931E-04  1860   0.695E-02    0.256E-02
DAV:   3    -0.865389102165E+02    0.71947E-05   -0.20343E-05   948   0.260E-02    0.446E-03
DAV:   4    -0.865389107662E+02   -0.54974E-06   -0.45304E-06   768   0.102E-02    0.235E-03
DAV:   5    -0.865389107866E+02   -0.20335E-07   -0.53649E-07   720   0.400E-03    0.798E-04
DAV:   6    -0.865389107872E+02   -0.63301E-09   -0.75351E-08   720   0.151E-03
 138 F= -.86538911E+02 E0= -.86536385E+02  d E =-.254692E-03
       N       E                     dE             d eps       ncg     rms          rms(c)
DAV:   1    -0.865393144307E+02   -0.40364E-03   -0.15045E-01  1440   0.165E+00    0.126E-01
DAV:   2    -0.865393769544E+02   -0.62524E-04   -0.21699E-03  1908   0.209E-01    0.768E-02
DAV:   3    -0.865393117543E+02    0.65200E-04   -0.18981E-04  1656   0.772E-02    0.140E-02
DAV:   4    -0.865393151088E+02   -0.33545E-05   -0.30442E-05  1020   0.258E-02    0.691E-03
DAV:   5    -0.865393152353E+02   -0.12651E-06   -0.39543E-06   912   0.105E-02    0.240E-03
DAV:   6    -0.865393152835E+02   -0.48239E-07   -0.60082E-07   900   0.448E-03
 139 F= -.86539315E+02 E0= -.86536907E+02  d E =-.659188E-03
       N       E                     dE             d eps       ncg     rms          rms(c)
DAV:   1    -0.865396187529E+02   -0.30352E-03   -0.36655E-02  1440   0.783E-01    0.547E-02
DAV:   2    -0.865396530661E+02   -0.34313E-04   -0.60097E-04  1848   0.101E-01    0.332E-02
DAV:   3    -0.865396436538E+02    0.94123E-05   -0.21280E-05   948   0.241E-02    0.110E-02
DAV:   4    -0.865396440679E+02   -0.41411E-06   -0.77303E-06   828   0.135E-02    0.277E-03
DAV:   5    -0.865396440205E+02    0.47330E-07   -0.89072E-07   828   0.469E-03    0.763E-04
DAV:   6    -0.865396440296E+02   -0.90811E-08   -0.10492E-07   768   0.160E-03
 140 F= -.86539644E+02 E0= -.86537234E+02  d E =-.328746E-03
       N       E                     dE             d eps       ncg     rms          rms(c)
DAV:   1    -0.865397120830E+02   -0.68062E-04   -0.25752E-02  1440   0.656E-01    0.458E-02
DAV:   2    -0.865397360650E+02   -0.23982E-04   -0.42210E-04  1884   0.847E-02    0.278E-02
DAV:   3    -0.865397294069E+02    0.66582E-05   -0.14994E-05   924   0.202E-02    0.915E-03
DAV:   4    -0.865397296663E+02   -0.25945E-06   -0.54260E-06   828   0.113E-02    0.232E-03
DAV:   5    -0.865397296241E+02    0.42180E-07   -0.62257E-07   768   0.393E-03    0.626E-04
DAV:   6    -0.865397296308E+02   -0.66193E-08   -0.73465E-08   732   0.134E-03
 141 F= -.86539730E+02 E0= -.86537318E+02  d E =-.414347E-03
       N       E                     dE             d eps       ncg     rms          rms(c)
DAV:   1    -0.865399038558E+02   -0.17423E-03   -0.14276E-02  1440   0.486E-01    0.321E-02
DAV:   2    -0.865399104286E+02   -0.65728E-05   -0.21010E-04  1836   0.611E-02    0.199E-02
DAV:   3    -0.865399042645E+02    0.61641E-05   -0.15296E-05   912   0.206E-02    0.407E-03
DAV:   4    -0.865399045349E+02   -0.27039E-06   -0.34660E-06   756   0.899E-03    0.184E-03
DAV:   5    -0.865399045128E+02    0.22084E-07   -0.31298E-07   720   0.286E-03    0.781E-04
DAV:   6    -0.865399045076E+02    0.52200E-08   -0.80584E-08   720   0.146E-03
 142 F= -.86539905E+02 E0= -.86537473E+02  d E =-.174877E-03
       N       E                     dE             d eps       ncg     rms          rms(c)
DAV:   1    -0.865402926668E+02   -0.38815E-03   -0.12845E-01  1440   0.146E+00    0.961E-02
DAV:   2    -0.865403531699E+02   -0.60503E-04   -0.19087E-03  1884   0.184E-01    0.599E-02
DAV:   3    -0.865402966183E+02    0.56552E-04   -0.13277E-04  1488   0.602E-02    0.123E-02
DAV:   4    -0.865402987056E+02   -0.20872E-05   -0.27294E-05  1068   0.250E-02    0.548E-03
DAV:   5    -0.865402985489E+02    0.15664E-06   -0.24390E-06   960   0.803E-03    0.225E-03
DAV:   6    -0.865402985103E+02    0.38624E-07   -0.61809E-07   972   0.407E-03
 143 F= -.86540299E+02 E0= -.86537807E+02  d E =-.568880E-03
       N       E                     dE             d eps       ncg     rms          rms(c)
DAV:   1    -0.865404561800E+02   -0.15763E-03   -0.51404E-01  1440   0.291E+00    0.192E-01
DAV:   2    -0.865407060280E+02   -0.24985E-03   -0.77186E-03  1872   0.369E-01    0.120E-01
DAV:   3    -0.865404857662E+02    0.22026E-03   -0.56057E-04  1872   0.120E-01    0.249E-02
DAV:   4    -0.865404915647E+02   -0.57985E-05   -0.79774E-05  1428   0.417E-02    0.109E-02
DAV:   5    -0.865404907922E+02    0.77251E-06   -0.55574E-06  1116   0.117E-02    0.436E-03
DAV:   6    -0.865404906970E+02    0.95236E-07   -0.18053E-06   984   0.674E-03
 144 F= -.86540491E+02 E0= -.86537886E+02  d E =-.761066E-03
       N       E                     dE             d eps       ncg     rms          rms(c)
DAV:   1    -0.865408365362E+02   -0.34574E-03   -0.55364E-02  1440   0.959E-01    0.788E-02
DAV:   2    -0.865408178623E+02    0.18674E-04   -0.74515E-04  1896   0.120E-01    0.436E-02
DAV:   3    -0.865407975010E+02    0.20361E-04   -0.49637E-05  1140   0.342E-02    0.152E-02
DAV:   4    -0.865407968477E+02    0.65332E-06   -0.13637E-05   972   0.202E-02    0.401E-03
DAV:   5    -0.865407970742E+02   -0.22646E-06   -0.21958E-06   960   0.698E-03    0.191E-03
DAV:   6    -0.865407970446E+02    0.29537E-07   -0.34698E-07   900   0.317E-03
 145 F= -.86540797E+02 E0= -.86538160E+02  d E =-.306348E-03
       N       E                     dE             d eps       ncg     rms          rms(c)
DAV:   1    -0.865408448687E+02   -0.47795E-04   -0.13533E-02  1440   0.473E-01    0.388E-02
DAV:   2    -0.865408406764E+02    0.41923E-05   -0.18138E-04  1860   0.591E-02    0.215E-02
DAV:   3    -0.865408359590E+02    0.47174E-05   -0.12882E-05   924   0.173E-02    0.744E-03
DAV:   4    -0.865408358477E+02    0.11130E-06   -0.32895E-06   768   0.999E-03    0.200E-03
DAV:   5    -0.865408359156E+02   -0.67911E-07   -0.56119E-07   756   0.350E-03    0.950E-04
DAV:   6    -0.865408359101E+02    0.54943E-08   -0.89614E-08   756   0.161E-03
 146 F= -.86540836E+02 E0= -.86538183E+02  d E =-.345213E-03
       N       E                     dE             d eps       ncg     rms          rms(c)
DAV:   1    -0.865409547793E+02   -0.11886E-03   -0.97714E-04  1788   0.166E-01    0.216E-02
DAV:   2    -0.865409453089E+02    0.94704E-05   -0.30923E-05   768   0.310E-02    0.120E-02
DAV:   3    -0.865409413976E+02    0.39113E-05   -0.12376E-05   720   0.194E-02    0.336E-03
DAV:   4    -0.865409412864E+02    0.11120E-06   -0.18107E-06   720   0.763E-03    0.158E-03
DAV:   5    -0.865409411817E+02    0.10475E-06   -0.29710E-07   720   0.322E-03    0.516E-04
DAV:   6    -0.865409411737E+02    0.80011E-08   -0.78641E-08   720   0.151E-03
 147 F= -.86540941E+02 E0= -.86538334E+02  d E =-.105264E-03
