       N       E                     dE             d eps       ncg     rms          rms(c)
DAV:   1     0.114317351209E+03    0.11432E+03   -0.20240E+04  1440   0.100E+03
DAV:   2    -0.770510422026E+02   -0.19137E+03   -0.18350E+03  1824   0.222E+02
DAV:   3    -0.855551227801E+02   -0.85041E+01   -0.84229E+01  1896   0.450E+01
DAV:   4    -0.856452447421E+02   -0.90122E-01   -0.90095E-01  1764   0.518E+00
DAV:   5    -0.856466376648E+02   -0.13929E-02   -0.13929E-02  2028   0.579E-01    0.130E+01
DAV:   6    -0.787992328382E+02    0.68474E+01   -0.80387E+00  1728   0.154E+01    0.653E+00
DAV:   7    -0.773276256317E+02    0.14716E+01   -0.57530E+00  1920   0.111E+01    0.200E+00
DAV:   8    -0.773456432582E+02   -0.18018E-01   -0.37693E-01  1656   0.277E+00    0.112E+00
DAV:   9    -0.773518661052E+02   -0.62228E-02   -0.30301E-02  1848   0.862E-01    0.363E-01
DAV:  10    -0.773538403250E+02   -0.19742E-02   -0.40269E-03  1848   0.288E-01    0.106E-01
DAV:  11    -0.773538832721E+02   -0.42947E-04   -0.43006E-04  1824   0.126E-01
   1 F= -.77353883E+02 E0= -.77345043E+02  d E =-.773539E+02
       N       E                     dE             d eps       ncg     rms          rms(c)
DAV:   1    -0.790094960014E+02   -0.16557E+01   -0.13709E+03  1524   0.170E+02    0.111E+01
DAV:   2    -0.831527283698E+02   -0.41432E+01   -0.82049E+01  1848   0.379E+01    0.698E+00
DAV:   3    -0.819245449561E+02    0.12282E+01   -0.49695E+00  1752   0.101E+01    0.329E+00
DAV:   4    -0.817959341981E+02    0.12861E+00   -0.88441E-01  1896   0.438E+00    0.158E+00
DAV:   5    -0.817530202240E+02    0.42914E-01   -0.37398E-01  1920   0.261E+00    0.491E-01
DAV:   6    -0.817519832224E+02    0.10370E-02   -0.14761E-02  1776   0.583E-01    0.265E-01
DAV:   7    -0.817508642571E+02    0.11190E-02   -0.46829E-03  1800   0.366E-01    0.603E-02
DAV:   8    -0.817507840006E+02    0.80256E-04   -0.22102E-04  1788   0.737E-02
   2 F= -.81750784E+02 E0= -.81750784E+02  d E =-.439690E+01
       N       E                     dE             d eps       ncg     rms          rms(c)
DAV:   1    -0.824347905796E+02   -0.68393E+00   -0.14634E+02  1440   0.498E+01    0.429E+00
DAV:   2    -0.822941411478E+02    0.14065E+00   -0.37512E+00  1896   0.786E+00    0.212E+00
DAV:   3    -0.822000914295E+02    0.94050E-01   -0.21357E-01  1728   0.232E+00    0.100E+00
DAV:   4    -0.821755631015E+02    0.24528E-01   -0.11157E-01  1896   0.165E+00    0.244E-01
DAV:   5    -0.821753742335E+02    0.18887E-03   -0.15747E-02  1884   0.545E-01    0.125E-01
DAV:   6    -0.821751459049E+02    0.22833E-03   -0.57294E-04  1872   0.116E-01    0.616E-02
DAV:   7    -0.821750306485E+02    0.11526E-03   -0.16899E-04  1776   0.690E-02    0.112E-02
DAV:   8    -0.821750255411E+02    0.51074E-05   -0.22231E-05  1476   0.242E-02
   3 F= -.82175026E+02 E0= -.82175023E+02  d E =-.482114E+01
       N       E                     dE             d eps       ncg     rms          rms(c)
DAV:   1    -0.828441417617E+02   -0.66911E+00   -0.88497E+02  1464   0.123E+02    0.891E+00
DAV:   2    -0.836891112562E+02   -0.84497E+00   -0.36867E+01  1788   0.257E+01    0.608E+00
DAV:   3    -0.822602293118E+02    0.14289E+01   -0.46847E+00  1860   0.872E+00    0.281E+00
DAV:   4    -0.821060302689E+02    0.15420E+00   -0.87186E-01  1860   0.391E+00    0.821E-01
DAV:   5    -0.821027547108E+02    0.32756E-02   -0.10898E-01  1860   0.141E+00    0.433E-01
DAV:   6    -0.821037656898E+02   -0.10110E-02   -0.67927E-03  1776   0.403E-01    0.143E-01
DAV:   7    -0.821035976377E+02    0.16805E-03   -0.14073E-03  1848   0.195E-01    0.536E-02
DAV:   8    -0.821034694670E+02    0.12817E-03   -0.31420E-04  1728   0.872E-02    0.167E-02
DAV:   9    -0.821034412625E+02    0.28205E-04   -0.46372E-05  1584   0.301E-02
   4 F= -.82103441E+02 E0= -.82103438E+02  d E =0.715843E-01
       N       E                     dE             d eps       ncg     rms          rms(c)
DAV:   1    -0.825418496115E+02   -0.43838E+00   -0.37281E+01  1440   0.261E+01    0.186E+00
DAV:   2    -0.825038615277E+02    0.37988E-01   -0.70137E-01  1836   0.348E+00    0.113E+00
DAV:   3    -0.824620285152E+02    0.41833E-01   -0.82738E-02  1836   0.147E+00    0.324E-01
DAV:   4    -0.824598437052E+02    0.21848E-02   -0.20805E-02  1920   0.622E-01    0.125E-01
DAV:   5    -0.824595854139E+02    0.25829E-03   -0.90005E-04  1752   0.146E-01    0.644E-02
DAV:   6    -0.824594548743E+02    0.13054E-03   -0.17874E-04  1440   0.720E-02    0.120E-02
DAV:   7    -0.824594461477E+02    0.87267E-05   -0.25350E-05  1500   0.258E-02
   5 F= -.82459446E+02 E0= -.82459446E+02  d E =-.284421E+00
       N       E                     dE             d eps       ncg     rms          rms(c)
DAV:   1    -0.828771149879E+02   -0.41766E+00   -0.31532E+01  1440   0.241E+01    0.178E+00
DAV:   2    -0.828361226509E+02    0.40992E-01   -0.61024E-01  1800   0.328E+00    0.105E+00
DAV:   3    -0.827989019944E+02    0.37221E-01   -0.68842E-02  1872   0.136E+00    0.317E-01
DAV:   4    -0.827963641636E+02    0.25378E-02   -0.20134E-02  1920   0.623E-01    0.116E-01
DAV:   5    -0.827961225186E+02    0.24165E-03   -0.10135E-03  1740   0.153E-01    0.597E-02
DAV:   6    -0.827959784607E+02    0.14406E-03   -0.16320E-04  1452   0.675E-02    0.109E-02
DAV:   7    -0.827959694927E+02    0.89680E-05   -0.22766E-05  1500   0.247E-02
   6 F= -.82795969E+02 E0= -.82795969E+02  d E =-.620944E+00
       N       E                     dE             d eps       ncg     rms          rms(c)
DAV:   1    -0.834300858935E+02   -0.63411E+00   -0.10589E+02  1440   0.446E+01    0.352E+00
DAV:   2    -0.832677767039E+02    0.16231E+00   -0.24018E+00  1824   0.637E+00    0.204E+00
DAV:   3    -0.831337762191E+02    0.13400E+00   -0.24568E-01  1848   0.260E+00    0.704E-01
DAV:   4    -0.831211621648E+02    0.12614E-01   -0.86624E-02  1908   0.132E+00    0.232E-01
DAV:   5    -0.831204295608E+02    0.73260E-03   -0.55831E-03  1680   0.361E-01    0.116E-01
DAV:   6    -0.831199257383E+02    0.50382E-03   -0.63307E-04  1776   0.128E-01    0.279E-02
DAV:   7    -0.831198596338E+02    0.66104E-04   -0.90532E-05  1644   0.499E-02
   7 F= -.83119860E+02 E0= -.83119860E+02  d E =-.944834E+00
       N       E                     dE             d eps       ncg     rms          rms(c)
DAV:   1    -0.859593941875E+02   -0.28395E+01   -0.47991E+02  1440   0.988E+01    0.887E+00
DAV:   2    -0.852372882051E+02    0.72211E+00   -0.26302E+01  1884   0.214E+01    0.595E+00
DAV:   3    -0.842432998319E+02    0.99399E+00   -0.23191E+00  1872   0.647E+00    0.287E+00
DAV:   4    -0.838993213521E+02    0.34398E+00   -0.12250E+00  1908   0.491E+00    0.122E+00
DAV:   5    -0.838840477369E+02    0.15274E-01   -0.21025E-01  1788   0.205E+00    0.428E-01
DAV:   6    -0.838841456302E+02   -0.97893E-04   -0.14786E-02  1896   0.548E-01    0.225E-01
DAV:   7    -0.838841703270E+02   -0.24697E-04   -0.24305E-03  1824   0.258E-01    0.352E-02
DAV:   8    -0.838841126076E+02    0.57719E-04   -0.18283E-04  1680   0.645E-02
   8 F= -.83884113E+02 E0= -.83883997E+02  d E =-.764253E+00
       N       E                     dE             d eps       ncg     rms          rms(c)
DAV:   1    -0.846639649982E+02   -0.77979E+00   -0.88533E+01  1440   0.428E+01    0.355E+00
DAV:   2    -0.844122736526E+02    0.25169E+00   -0.20895E+00  1920   0.658E+00    0.214E+00
DAV:   3    -0.842384453111E+02    0.17383E+00   -0.61471E-01  1848   0.400E+00    0.656E-01
DAV:   4    -0.842345287804E+02    0.39165E-02   -0.80878E-02  1836   0.128E+00    0.255E-01
DAV:   5    -0.842335235911E+02    0.10052E-02   -0.48116E-03  1908   0.318E-01    0.135E-01
DAV:   6    -0.842329976090E+02    0.52598E-03   -0.76668E-04  1776   0.143E-01    0.265E-02
DAV:   7    -0.842329584667E+02    0.39142E-04   -0.67895E-05  1644   0.437E-02
   9 F= -.84232958E+02 E0= -.84232958E+02  d E =-.111310E+01
       N       E                     dE             d eps       ncg     rms          rms(c)
DAV:   1    -0.860019724910E+02   -0.17690E+01   -0.10208E+02  1440   0.483E+01    0.509E+00
DAV:   2    -0.853297527615E+02    0.67222E+00   -0.31600E+00  1920   0.848E+00    0.291E+00
DAV:   3    -0.849647467076E+02    0.36501E+00   -0.73208E-01  1812   0.383E+00    0.838E-01
DAV:   4    -0.849377144985E+02    0.27032E-01   -0.11053E-01  1932   0.161E+00    0.325E-01
DAV:   5    -0.849371583344E+02    0.55616E-03   -0.12240E-02  1812   0.515E-01    0.139E-01
DAV:   6    -0.849367105551E+02    0.44778E-03   -0.14888E-03  1920   0.188E-01    0.331E-02
DAV:   7    -0.849366595743E+02    0.50981E-04   -0.15053E-04  1632   0.652E-02
  10 F= -.84936660E+02 E0= -.84936658E+02  d E =-.703701E+00
       N       E                     dE             d eps       ncg     rms          rms(c)
DAV:   1    -0.849368385530E+02   -0.12800E-03   -0.40905E-02  1776   0.973E-01    0.993E-02
DAV:   2    -0.849365665877E+02    0.27197E-03   -0.84569E-04  1908   0.145E-01    0.564E-02
DAV:   3    -0.849364206487E+02    0.14594E-03   -0.32211E-04  1656   0.862E-02    0.110E-02
DAV:   4    -0.849364199029E+02    0.74583E-06   -0.35895E-05  1272   0.283E-02    0.580E-03
DAV:   5    -0.849364192155E+02    0.68738E-06   -0.37651E-06  1236   0.985E-03    0.155E-03
DAV:   6    -0.849364191842E+02    0.31291E-07   -0.60403E-07  1152   0.408E-03
  11 F= -.84936419E+02 E0= -.84936417E+02  d E =-.703461E+00
       N       E                     dE             d eps       ncg     rms          rms(c)
DAV:   1    -0.856384303838E+02   -0.70201E+00   -0.22221E+01  1440   0.210E+01    0.250E+00
DAV:   2    -0.855064319267E+02    0.13200E+00   -0.53259E-01  1824   0.331E+00    0.115E+00
DAV:   3    -0.854711235047E+02    0.35308E-01   -0.97644E-02  1764   0.136E+00    0.407E-01
DAV:   4    -0.854674250681E+02    0.36984E-02   -0.21280E-02  1920   0.765E-01    0.209E-01
DAV:   5    -0.854666821990E+02    0.74287E-03   -0.56018E-03  1824   0.312E-01    0.587E-02
DAV:   6    -0.854666438954E+02    0.38304E-04   -0.40603E-04  1824   0.951E-02
  12 F= -.85466644E+02 E0= -.85466643E+02  d E =-.530225E+00
       N       E                     dE             d eps       ncg     rms          rms(c)
DAV:   1    -0.855843124132E+02   -0.11763E+00   -0.53689E+00  1452   0.104E+01    0.126E+00
DAV:   2    -0.855500187725E+02    0.34294E-01   -0.12067E-01  1836   0.159E+00    0.558E-01
DAV:   3    -0.855418257174E+02    0.81931E-02   -0.21399E-02  1764   0.637E-01    0.199E-01
DAV:   4    -0.855408660362E+02    0.95968E-03   -0.44966E-03  1920   0.363E-01    0.855E-02
DAV:   5    -0.855407532871E+02    0.11275E-03   -0.10704E-03  1800   0.136E-01    0.283E-02
DAV:   6    -0.855407361811E+02    0.17106E-04   -0.81623E-05  1488   0.437E-02
  13 F= -.85540736E+02 E0= -.85540735E+02  d E =-.604317E+00
       N       E                     dE             d eps       ncg     rms          rms(c)
DAV:   1    -0.858043462124E+02   -0.26359E+00   -0.13133E+01  1440   0.151E+01    0.114E+00
DAV:   2    -0.857976446995E+02    0.67015E-02   -0.26719E-01  1824   0.199E+00    0.611E-01
DAV:   3    -0.857893628682E+02    0.82818E-02   -0.26399E-02  1740   0.713E-01    0.197E-01
DAV:   4    -0.857887032863E+02    0.65958E-03   -0.38310E-03  1884   0.319E-01    0.926E-02
DAV:   5    -0.857885808879E+02    0.12240E-03   -0.81683E-04  1740   0.122E-01    0.303E-02
DAV:   6    -0.857885665381E+02    0.14350E-04   -0.58246E-05  1500   0.370E-02
  14 F= -.85788567E+02 E0= -.85788565E+02  d E =-.247830E+00
       N       E                     dE             d eps       ncg     rms          rms(c)
DAV:   1    -0.858032870407E+02   -0.14706E-01   -0.10170E+00  1440   0.427E+00    0.319E-01
DAV:   2    -0.858026028585E+02    0.68418E-03   -0.19269E-02  1884   0.549E-01    0.166E-01
DAV:   3    -0.858019919431E+02    0.61092E-03   -0.16416E-03  1704   0.180E-01    0.544E-02
DAV:   4    -0.858019400249E+02    0.51918E-04   -0.27272E-04  1908   0.905E-02    0.228E-02
DAV:   5    -0.858019329631E+02    0.70617E-05   -0.50854E-05  1032   0.307E-02    0.838E-03
DAV:   6    -0.858019316388E+02    0.13243E-05   -0.79751E-06   900   0.131E-02
  15 F= -.85801932E+02 E0= -.85801930E+02  d E =-.261195E+00
       N       E                     dE             d eps       ncg     rms          rms(c)
DAV:   1    -0.858393638448E+02   -0.37431E-01   -0.11649E+00  1440   0.460E+00    0.358E-01
DAV:   2    -0.858389095498E+02    0.45430E-03   -0.22515E-02  1836   0.653E-01    0.174E-01
DAV:   3    -0.858383062633E+02    0.60329E-03   -0.95166E-04  1800   0.167E-01    0.785E-02
DAV:   4    -0.858382004468E+02    0.10582E-03   -0.50127E-04  1824   0.119E-01    0.156E-02
DAV:   5    -0.858382015314E+02   -0.10846E-05   -0.53032E-05  1056   0.370E-02    0.758E-03
DAV:   6    -0.858382011770E+02    0.35445E-06   -0.65890E-06   936   0.133E-02
  16 F= -.85838201E+02 E0= -.85838195E+02  d E =-.362695E-01
       N       E                     dE             d eps       ncg     rms          rms(c)
DAV:   1    -0.858838871356E+02   -0.45686E-01   -0.74040E+00  1440   0.117E+01    0.927E-01
DAV:   2    -0.858813408597E+02    0.25463E-02   -0.15452E-01  1872   0.167E+00    0.441E-01
DAV:   3    -0.858775202169E+02    0.38206E-02   -0.59855E-03  1788   0.419E-01    0.210E-01
DAV:   4    -0.858767776119E+02    0.74261E-03   -0.35895E-03  1752   0.317E-01    0.425E-02
DAV:   5    -0.858767825813E+02   -0.49694E-05   -0.43025E-04  1800   0.102E-01    0.206E-02
DAV:   6    -0.858767773563E+02    0.52250E-05   -0.19317E-05  1248   0.212E-02
  17 F= -.85876777E+02 E0= -.85876675E+02  d E =-.748457E-01
       N       E                     dE             d eps       ncg     rms          rms(c)
DAV:   1    -0.859130424149E+02   -0.36260E-01   -0.17659E+00  1440   0.553E+00    0.450E-01
DAV:   2    -0.859122956618E+02    0.74675E-03   -0.36834E-02  1920   0.755E-01    0.215E-01
DAV:   3    -0.859110819887E+02    0.12137E-02   -0.19375E-03  1764   0.222E-01    0.782E-02
DAV:   4    -0.859109439761E+02    0.13801E-03   -0.72876E-04  1896   0.137E-01    0.200E-02
DAV:   5    -0.859109402088E+02    0.37673E-05   -0.53730E-05  1380   0.340E-02    0.925E-03
DAV:   6    -0.859109376740E+02    0.25347E-05   -0.73379E-06  1236   0.138E-02
  18 F= -.85910938E+02 E0= -.85910754E+02  d E =-.341603E-01
       N       E                     dE             d eps       ncg     rms          rms(c)
DAV:   1    -0.859298496600E+02   -0.18909E-01   -0.29502E+00  1440   0.716E+00    0.584E-01
DAV:   2    -0.859285576938E+02    0.12920E-02   -0.62101E-02  1920   0.983E-01    0.280E-01
DAV:   3    -0.859264981571E+02    0.20595E-02   -0.32214E-03  1764   0.291E-01    0.103E-01
DAV:   4    -0.859262588548E+02    0.23930E-03   -0.12620E-03  1920   0.181E-01    0.260E-02
DAV:   5    -0.859262522425E+02    0.66123E-05   -0.93380E-05  1416   0.450E-02    0.120E-02
DAV:   6    -0.859262478423E+02    0.44002E-05   -0.12265E-05  1488   0.178E-02
  19 F= -.85926248E+02 E0= -.85925897E+02  d E =-.494705E-01
       N       E                     dE             d eps       ncg     rms          rms(c)
DAV:   1    -0.859565512424E+02   -0.30299E-01   -0.29445E+00  1440   0.698E+00    0.518E-01
DAV:   2    -0.859558321464E+02    0.71910E-03   -0.53163E-02  1920   0.884E-01    0.262E-01
DAV:   3    -0.859537761887E+02    0.20560E-02   -0.31697E-03  1860   0.286E-01    0.879E-02
DAV:   4    -0.859536026011E+02    0.17359E-03   -0.11127E-03  1920   0.160E-01    0.280E-02
DAV:   5    -0.859535903383E+02    0.12263E-04   -0.77952E-05  1440   0.419E-02    0.106E-02
DAV:   6    -0.859535863211E+02    0.40172E-05   -0.94699E-06  1332   0.166E-02
  20 F= -.85953586E+02 E0= -.85953353E+02  d E =-.273385E-01
       N       E                     dE             d eps       ncg     rms          rms(c)
DAV:   1    -0.860201407554E+02   -0.66550E-01   -0.26531E+01  1440   0.210E+01    0.160E+00
DAV:   2    -0.860148819537E+02    0.52588E-02   -0.53165E-01  1920   0.276E+00    0.791E-01
DAV:   3    -0.859970653392E+02    0.17817E-01   -0.25631E-02  1860   0.852E-01    0.314E-01
DAV:   4    -0.859946876620E+02    0.23777E-02   -0.13399E-02  1932   0.553E-01    0.884E-02
DAV:   5    -0.859946060302E+02    0.81632E-04   -0.97612E-04  1764   0.144E-01    0.485E-02
DAV:   6    -0.859945451613E+02    0.60869E-04   -0.11519E-04  1572   0.543E-02
  21 F= -.85994545E+02 E0= -.85994494E+02  d E =-.682973E-01
       N       E                     dE             d eps       ncg     rms          rms(c)
DAV:   1    -0.860105939121E+02   -0.15988E-01   -0.32608E+00  1440   0.686E+00    0.402E-01
DAV:   2    -0.860140520264E+02   -0.34581E-02   -0.47564E-02  1908   0.795E-01    0.214E-01
DAV:   3    -0.860138311875E+02    0.22084E-03   -0.84420E-04  1848   0.142E-01    0.927E-02
DAV:   4    -0.860138635989E+02   -0.32411E-04   -0.30500E-04  1920   0.800E-02    0.197E-02
DAV:   5    -0.860138665532E+02   -0.29543E-05   -0.33386E-05  1212   0.266E-02    0.741E-03
DAV:   6    -0.860138666717E+02   -0.11847E-06   -0.34064E-06  1164   0.889E-03
  22 F= -.86013867E+02 E0= -.86013826E+02  d E =-.193215E-01
       N       E                     dE             d eps       ncg     rms          rms(c)
DAV:   1    -0.860177322855E+02   -0.38657E-02   -0.43689E+00  1440   0.793E+00    0.459E-01
DAV:   2    -0.860224297668E+02   -0.46975E-02   -0.63261E-02  1908   0.917E-01    0.246E-01
DAV:   3    -0.860221340839E+02    0.29568E-03   -0.11342E-03  1872   0.168E-01    0.104E-01
DAV:   4    -0.860221808365E+02   -0.46753E-04   -0.39853E-04  1908   0.904E-02    0.230E-02
DAV:   5    -0.860221850716E+02   -0.42351E-05   -0.36572E-05  1200   0.276E-02    0.946E-03
DAV:   6    -0.860221853203E+02   -0.24875E-06   -0.44579E-06  1092   0.104E-02
  23 F= -.86022185E+02 E0= -.86022155E+02  d E =-.276402E-01
       N       E                     dE             d eps       ncg     rms          rms(c)
DAV:   1    -0.860321577106E+02   -0.99726E-02   -0.78938E-01  1440   0.343E+00    0.231E-01
DAV:   2    -0.860329979847E+02   -0.84027E-03   -0.11530E-02  1908   0.393E-01    0.130E-01
DAV:   3    -0.860329371712E+02    0.60814E-04   -0.27823E-04  1848   0.823E-02    0.456E-02
DAV:   4    -0.860329454179E+02   -0.82467E-05   -0.61977E-05  1332   0.351E-02    0.130E-02
DAV:   5    -0.860329469023E+02   -0.14844E-05   -0.99508E-06  1092   0.146E-02    0.545E-03
DAV:   6    -0.860329468194E+02    0.82912E-07   -0.13136E-06   936   0.612E-03
  24 F= -.86032947E+02 E0= -.86032917E+02  d E =-.107615E-01
       N       E                     dE             d eps       ncg     rms          rms(c)
DAV:   1    -0.860369031299E+02   -0.39562E-02   -0.14756E+00  1440   0.469E+00    0.315E-01
DAV:   2    -0.860384777796E+02   -0.15746E-02   -0.21627E-02  1908   0.537E-01    0.176E-01
DAV:   3    -0.860383668876E+02    0.11089E-03   -0.49739E-04  1860   0.110E-01    0.620E-02
DAV:   4    -0.860383852587E+02   -0.18371E-04   -0.12395E-04  1824   0.477E-02    0.174E-02
DAV:   5    -0.860383872224E+02   -0.19637E-05   -0.91602E-06  1164   0.141E-02    0.736E-03
DAV:   6    -0.860383871691E+02    0.53316E-07   -0.23915E-06  1020   0.779E-03
  25 F= -.86038387E+02 E0= -.86038359E+02  d E =-.162018E-01
       N       E                     dE             d eps       ncg     rms          rms(c)
DAV:   1    -0.860409168882E+02   -0.25297E-02   -0.81060E-02  1440   0.122E+00    0.936E-02
DAV:   2    -0.860408753086E+02    0.41580E-04   -0.13944E-03  1920   0.153E-01    0.563E-02
DAV:   3    -0.860407970149E+02    0.78294E-04   -0.14162E-04  1368   0.655E-02    0.128E-02
DAV:   4    -0.860407978484E+02   -0.83352E-06   -0.40446E-05  1044   0.297E-02    0.604E-03
DAV:   5    -0.860407973257E+02    0.52275E-06   -0.31696E-06   948   0.965E-03    0.287E-03
DAV:   6    -0.860407972298E+02    0.95889E-07   -0.68435E-07   840   0.433E-03
  26 F= -.86040797E+02 E0= -.86040765E+02  d E =-.241006E-02
       N       E                     dE             d eps       ncg     rms          rms(c)
DAV:   1    -0.860478191012E+02   -0.70218E-02   -0.72773E-01  1440   0.365E+00    0.280E-01
DAV:   2    -0.860474290784E+02    0.39002E-03   -0.12368E-02  1920   0.457E-01    0.169E-01
DAV:   3    -0.860467258338E+02    0.70324E-03   -0.13991E-03  1860   0.197E-01    0.359E-02
DAV:   4    -0.860467283878E+02   -0.25540E-05   -0.24170E-04  1908   0.676E-02    0.170E-02
DAV:   5    -0.860467230397E+02    0.53481E-05   -0.11033E-05  1188   0.178E-02    0.740E-03
DAV:   6    -0.860467223331E+02    0.70656E-06   -0.39452E-06  1032   0.105E-02
  27 F= -.86046722E+02 E0= -.86046676E+02  d E =-.833516E-02
       N       E                     dE             d eps       ncg     rms          rms(c)
DAV:   1    -0.860571570896E+02   -0.10434E-01   -0.29019E+00  1440   0.730E+00    0.557E-01
DAV:   2    -0.860556309771E+02    0.15261E-02   -0.48806E-02  1920   0.912E-01    0.337E-01
DAV:   3    -0.860527424661E+02    0.28885E-02   -0.58916E-03  1860   0.403E-01    0.640E-02
DAV:   4    -0.860527770899E+02   -0.34624E-04   -0.88308E-04  1896   0.129E-01    0.336E-02
DAV:   5    -0.860527569319E+02    0.20158E-04   -0.42083E-05  1488   0.348E-02    0.133E-02
DAV:   6    -0.860527547413E+02    0.21906E-05   -0.12770E-05  1308   0.190E-02
  28 F= -.86052755E+02 E0= -.86052664E+02  d E =-.143676E-01
       N       E                     dE             d eps       ncg     rms          rms(c)
DAV:   1    -0.860548176088E+02   -0.20607E-02   -0.28933E-02  1464   0.719E-01    0.664E-02
DAV:   2    -0.860547855610E+02    0.32048E-04   -0.43619E-04  1872   0.875E-02    0.355E-02
DAV:   3    -0.860547645751E+02    0.20986E-04   -0.28711E-05  1032   0.279E-02    0.129E-02
DAV:   4    -0.860547630190E+02    0.15560E-05   -0.15144E-05   972   0.191E-02    0.296E-03
DAV:   5    -0.860547629131E+02    0.10598E-06   -0.14016E-06   924   0.605E-03    0.153E-03
DAV:   6    -0.860547628625E+02    0.50603E-07   -0.18825E-07   912   0.223E-03
  29 F= -.86054763E+02 E0= -.86054669E+02  d E =-.200812E-02
       N       E                     dE             d eps       ncg     rms          rms(c)
DAV:   1    -0.860604939238E+02   -0.57310E-02   -0.25992E-01  1440   0.215E+00    0.199E-01
DAV:   2    -0.860602126420E+02    0.28128E-03   -0.38943E-03  1800   0.261E-01    0.107E-01
DAV:   3    -0.860600358637E+02    0.17678E-03   -0.26125E-04  1512   0.823E-02    0.376E-02
DAV:   4    -0.860600245789E+02    0.11285E-04   -0.10637E-04  1380   0.513E-02    0.818E-03
DAV:   5    -0.860600243849E+02    0.19397E-06   -0.93135E-06   960   0.155E-02    0.383E-03
DAV:   6    -0.860600242817E+02    0.10319E-06   -0.13241E-06   864   0.596E-03
  30 F= -.86060024E+02 E0= -.86059919E+02  d E =-.726954E-02
       N       E                     dE             d eps       ncg     rms          rms(c)
DAV:   1    -0.860687831022E+02   -0.87587E-02   -0.10403E+00  1440   0.430E+00    0.395E-01
DAV:   2    -0.860677010002E+02    0.10821E-02   -0.15443E-02  1788   0.521E-01    0.213E-01
DAV:   3    -0.860669753953E+02    0.72560E-03   -0.11066E-03  1776   0.165E-01    0.718E-02
DAV:   4    -0.860669376163E+02    0.37779E-04   -0.34215E-04  1824   0.888E-02    0.161E-02
DAV:   5    -0.860669363472E+02    0.12691E-05   -0.20194E-05  1056   0.219E-02    0.684E-03
DAV:   6    -0.860669361661E+02    0.18110E-06   -0.34526E-06   996   0.982E-03
  31 F= -.86066936E+02 E0= -.86066807E+02  d E =-.141814E-01
       N       E                     dE             d eps       ncg     rms          rms(c)
DAV:   1    -0.860719418359E+02   -0.50055E-02   -0.41685E+00  1440   0.860E+00    0.779E-01
DAV:   2    -0.860679726218E+02    0.39692E-02   -0.61383E-02  1776   0.105E+00    0.426E-01
DAV:   3    -0.860649800878E+02    0.29925E-02   -0.46859E-03  1788   0.334E-01    0.133E-01
DAV:   4    -0.860648617001E+02    0.11839E-03   -0.11496E-03  1824   0.166E-01    0.315E-02
DAV:   5    -0.860648602320E+02    0.14681E-05   -0.66979E-05  1512   0.396E-02    0.126E-02
DAV:   6    -0.860648598485E+02    0.38354E-06   -0.10037E-05  1188   0.167E-02
  32 F= -.86064860E+02 E0= -.86064671E+02  d E =-.121051E-01
       N       E                     dE             d eps       ncg     rms          rms(c)
DAV:   1    -0.860713884079E+02   -0.65282E-02   -0.15578E+00  1440   0.527E+00    0.487E-01
DAV:   2    -0.860698742191E+02    0.15142E-02   -0.24522E-02  1740   0.646E-01    0.260E-01
DAV:   3    -0.860688487343E+02    0.10255E-02   -0.14668E-03  1812   0.197E-01    0.975E-02
DAV:   4    -0.860687368464E+02    0.11189E-03   -0.62743E-04  1848   0.119E-01    0.205E-02
DAV:   5    -0.860687357097E+02    0.11367E-05   -0.39181E-05  1080   0.305E-02    0.968E-03
DAV:   6    -0.860687363730E+02   -0.66331E-06   -0.68027E-06   912   0.135E-02
  33 F= -.86068736E+02 E0= -.86068585E+02  d E =-.159816E-01
       N       E                     dE             d eps       ncg     rms          rms(c)
DAV:   1    -0.860714046809E+02   -0.26690E-02   -0.14021E-01  1440   0.148E+00    0.111E-01
DAV:   2    -0.860714500298E+02   -0.45349E-04   -0.21326E-03  1572   0.179E-01    0.604E-02
DAV:   3    -0.860714097071E+02    0.40323E-04   -0.63704E-05  1356   0.407E-02    0.237E-02
DAV:   4    -0.860714079432E+02    0.17639E-05   -0.34665E-05   804   0.281E-02    0.493E-03
DAV:   5    -0.860714079296E+02    0.13553E-07   -0.38036E-06   732   0.938E-03    0.200E-03
DAV:   6    -0.860714079220E+02    0.76514E-08   -0.34160E-07   720   0.293E-03
  34 F= -.86071408E+02 E0= -.86071251E+02  d E =-.267155E-02
       N       E                     dE             d eps       ncg     rms          rms(c)
DAV:   1    -0.860787001097E+02   -0.72922E-02   -0.12619E+00  1440   0.444E+00    0.328E-01
DAV:   2    -0.860791099045E+02   -0.40979E-03   -0.18885E-02  1620   0.533E-01    0.181E-01
DAV:   3    -0.860787362952E+02    0.37361E-03   -0.66330E-04  1860   0.126E-01    0.663E-02
DAV:   4    -0.860787358562E+02    0.43897E-06   -0.22134E-04  1716   0.694E-02    0.150E-02
DAV:   5    -0.860787365388E+02   -0.68260E-06   -0.16506E-05  1032   0.184E-02    0.589E-03
DAV:   6    -0.860787365198E+02    0.18988E-07   -0.24641E-06   852   0.761E-03
  35 F= -.86078737E+02 E0= -.86078563E+02  d E =-.100001E-01
       N       E                     dE             d eps       ncg     rms          rms(c)
DAV:   1    -0.860896944253E+02   -0.10958E-01   -0.50411E+00  1440   0.888E+00    0.643E-01
DAV:   2    -0.860916914981E+02   -0.19971E-02   -0.74453E-02  1644   0.106E+00    0.361E-01
DAV:   3    -0.860901688178E+02    0.15227E-02   -0.28880E-03  1872   0.259E-01    0.122E-01
DAV:   4    -0.860901558124E+02    0.13005E-04   -0.74192E-04  1680   0.129E-01    0.310E-02
DAV:   5    -0.860901652343E+02   -0.94219E-05   -0.51426E-05  1536   0.327E-02    0.129E-02
DAV:   6    -0.860901647841E+02    0.45019E-06   -0.81482E-06  1020   0.146E-02
  36 F= -.86090165E+02 E0= -.86089955E+02  d E =-.214284E-01
       N       E                     dE             d eps       ncg     rms          rms(c)
DAV:   1    -0.860941404408E+02   -0.39752E-02   -0.20109E+01  1440   0.178E+01    0.124E+00
DAV:   2    -0.861046625115E+02   -0.10522E-01   -0.29981E-01  1644   0.211E+00    0.719E-01
DAV:   3    -0.860993310634E+02    0.53314E-02   -0.14597E-02  1872   0.565E-01    0.209E-01
DAV:   4    -0.860992035308E+02    0.12753E-03   -0.23827E-03  1728   0.234E-01    0.729E-02
DAV:   5    -0.860992824514E+02   -0.78921E-04   -0.23201E-04  1740   0.676E-02    0.292E-02
DAV:   6    -0.860992779820E+02    0.44694E-05   -0.27849E-05  1452   0.286E-02
  37 F= -.86099278E+02 E0= -.86098988E+02  d E =-.305416E-01
       N       E                     dE             d eps       ncg     rms          rms(c)
DAV:   1    -0.861141566506E+02   -0.14874E-01   -0.36109E+00  1440   0.730E+00    0.424E-01
DAV:   2    -0.861171429500E+02   -0.29863E-02   -0.46128E-02  1668   0.784E-01    0.254E-01
DAV:   3    -0.861164914006E+02    0.65155E-03   -0.15692E-03  1836   0.187E-01    0.681E-02
DAV:   4    -0.861165568284E+02   -0.65428E-04   -0.38563E-04  1728   0.737E-02    0.243E-02
DAV:   5    -0.861165600313E+02   -0.32029E-05   -0.13959E-05  1164   0.176E-02    0.973E-03
DAV:   6    -0.861165603994E+02   -0.36813E-06   -0.48601E-06   948   0.104E-02
  38 F= -.86116560E+02 E0= -.86116228E+02  d E =-.172824E-01
       N       E                     dE             d eps       ncg     rms          rms(c)
DAV:   1    -0.861213145616E+02   -0.47545E-02   -0.32288E+01  1440   0.218E+01    0.125E+00
DAV:   2    -0.861508678785E+02   -0.29553E-01   -0.43983E-01  1680   0.239E+00    0.768E-01
DAV:   3    -0.861460651525E+02    0.48027E-02   -0.16076E-02  1932   0.594E-01    0.256E-01
DAV:   4    -0.861461621370E+02   -0.96985E-04   -0.32163E-03  1668   0.233E-01    0.873E-02
DAV:   5    -0.861461948771E+02   -0.32740E-04   -0.44841E-04  1896   0.934E-02    0.356E-02
DAV:   6    -0.861461998632E+02   -0.49861E-05   -0.67983E-05  1440   0.418E-02
  39 F= -.86146200E+02 E0= -.86145715E+02  d E =-.469219E-01
       N       E                     dE             d eps       ncg     rms          rms(c)
DAV:   1    -0.860145467327E+02    0.13165E+00   -0.12660E+02  1440   0.428E+01    0.244E+00
DAV:   2    -0.861728634312E+02   -0.15832E+00   -0.21442E+00  1752   0.511E+00    0.154E+00
DAV:   3    -0.861506839794E+02    0.22179E-01   -0.53156E-02  1920   0.108E+00    0.740E-01
DAV:   4    -0.861518099164E+02   -0.11259E-02   -0.22954E-02  1776   0.665E-01    0.223E-01
DAV:   5    -0.861514682003E+02    0.34172E-03   -0.58611E-03  1836   0.331E-01    0.771E-02
DAV:   6    -0.861514638694E+02    0.43310E-05   -0.38251E-04  1824   0.898E-02
  40 F= -.86151464E+02 E0= -.86150589E+02  d E =-.521859E-01
       N       E                     dE             d eps       ncg     rms          rms(c)
DAV:   1    -0.861621306227E+02   -0.10662E-01   -0.19297E+00  1440   0.530E+00    0.315E-01
DAV:   2    -0.861633204437E+02   -0.11898E-02   -0.19940E-02  1860   0.538E-01    0.182E-01
DAV:   3    -0.861631033667E+02    0.21708E-03   -0.54349E-04  1752   0.109E-01    0.563E-02
DAV:   4    -0.861631373809E+02   -0.34014E-04   -0.15603E-04  1776   0.508E-02    0.154E-02
DAV:   5    -0.861631371247E+02    0.25615E-06   -0.19597E-05  1104   0.201E-02    0.312E-03
DAV:   6    -0.861631369066E+02    0.21814E-06   -0.21975E-06  1044   0.692E-03
  41 F= -.86163137E+02 E0= -.86162215E+02  d E =-.116730E-01
       N       E                     dE             d eps       ncg     rms          rms(c)
DAV:   1    -0.861798128598E+02   -0.16676E-01   -0.17314E+01  1440   0.159E+01    0.961E-01
DAV:   2    -0.861919878983E+02   -0.12175E-01   -0.19635E-01  1812   0.167E+00    0.548E-01
DAV:   3    -0.861899662864E+02    0.20216E-02   -0.42561E-03  1884   0.312E-01    0.224E-01
DAV:   4    -0.861899918769E+02   -0.25590E-04   -0.18926E-03  1584   0.185E-01    0.502E-02
DAV:   5    -0.861899869606E+02    0.49163E-05   -0.32007E-04  1896   0.754E-02    0.213E-02
DAV:   6    -0.861899833235E+02    0.36372E-05   -0.25681E-05  1140   0.265E-02
  42 F= -.86189983E+02 E0= -.86188931E+02  d E =-.385195E-01
       N       E                     dE             d eps       ncg     rms          rms(c)
DAV:   1    -0.861212872898E+02    0.68700E-01   -0.69079E+01  1440   0.319E+01    0.196E+00
DAV:   2    -0.861880528990E+02   -0.66766E-01   -0.10210E+00  1764   0.376E+00    0.110E+00
DAV:   3    -0.861799206456E+02    0.81323E-02   -0.19360E-02  1884   0.688E-01    0.565E-01
DAV:   4    -0.861802172990E+02   -0.29665E-03   -0.11979E-02  1680   0.492E-01    0.134E-01
DAV:   5    -0.861800967697E+02    0.12053E-03   -0.25985E-03  1884   0.224E-01    0.521E-02
DAV:   6    -0.861800877253E+02    0.90445E-05   -0.13044E-04  1500   0.547E-02
  43 F= -.86180088E+02 E0= -.86178823E+02  d E =-.286239E-01
       N       E                     dE             d eps       ncg     rms          rms(c)
DAV:   1    -0.861785474819E+02    0.15493E-02   -0.29145E+01  1440   0.212E+01    0.115E+00
DAV:   2    -0.862010207774E+02   -0.22473E-01   -0.31769E-01  1764   0.215E+00    0.715E-01
DAV:   3    -0.861980948260E+02    0.29260E-02   -0.14802E-02  1872   0.569E-01    0.217E-01
DAV:   4    -0.861980110386E+02    0.83787E-04   -0.17368E-03  1728   0.196E-01    0.856E-02
DAV:   5    -0.861980367008E+02   -0.25662E-04   -0.48914E-04  1860   0.100E-01    0.270E-02
DAV:   6    -0.861980353941E+02    0.13067E-05   -0.77993E-05  1440   0.403E-02
  44 F= -.86198035E+02 E0= -.86196900E+02  d E =-.465715E-01
       N       E                     dE             d eps       ncg     rms          rms(c)
DAV:   1    -0.862105443607E+02   -0.12508E-01   -0.61408E-02  1440   0.112E+00    0.850E-02
DAV:   2    -0.862104663138E+02    0.78047E-04   -0.18110E-03  1920   0.182E-01    0.551E-02
DAV:   3    -0.862103427483E+02    0.12357E-03   -0.35143E-04  1620   0.110E-01    0.122E-02
DAV:   4    -0.862103446663E+02   -0.19180E-05   -0.52965E-05  1032   0.347E-02    0.706E-03
DAV:   5    -0.862103443093E+02    0.35705E-06   -0.78135E-06   924   0.134E-02    0.272E-03
DAV:   6    -0.862103442555E+02    0.53780E-07   -0.13846E-06   792   0.725E-03
  45 F= -.86210344E+02 E0= -.86209179E+02  d E =-.123089E-01
       N       E                     dE             d eps       ncg     rms          rms(c)
DAV:   1    -0.862379136531E+02   -0.27569E-01   -0.55485E-01  1476   0.335E+00    0.256E-01
DAV:   2    -0.862371247087E+02    0.78894E-03   -0.15957E-02  1908   0.544E-01    0.165E-01
DAV:   3    -0.862359960632E+02    0.11286E-02   -0.32796E-03  1860   0.325E-01    0.364E-02
DAV:   4    -0.862360035046E+02   -0.74414E-05   -0.40049E-04  1848   0.905E-02    0.198E-02
DAV:   5    -0.862359951824E+02    0.83222E-05   -0.35842E-05  1272   0.270E-02    0.766E-03
DAV:   6    -0.862359935423E+02    0.16401E-05   -0.98057E-06  1128   0.194E-02
  46 F= -.86235994E+02 E0= -.86234752E+02  d E =-.379581E-01
       N       E                     dE             d eps       ncg     rms          rms(c)
DAV:   1    -0.862372270588E+02   -0.12319E-02   -0.22434E+00  1488   0.676E+00    0.520E-01
DAV:   2    -0.862339592104E+02    0.32678E-02   -0.66225E-02  1908   0.113E+00    0.340E-01
DAV:   3    -0.862293149678E+02    0.46442E-02   -0.14158E-02  1860   0.691E-01    0.810E-02
DAV:   4    -0.862293301774E+02   -0.15210E-04   -0.18201E-03  1860   0.193E-01    0.422E-02
DAV:   5    -0.862292933036E+02    0.36874E-04   -0.19645E-04  1860   0.605E-02    0.173E-02
DAV:   6    -0.862292853569E+02    0.79467E-05   -0.57822E-05  1272   0.440E-02
  47 F= -.86229285E+02 E0= -.86227955E+02  d E =-.312500E-01
       N       E                     dE             d eps       ncg     rms          rms(c)
DAV:   1    -0.862461479768E+02   -0.16855E-01   -0.81312E-01  1488   0.408E+00    0.316E-01
DAV:   2    -0.862449263941E+02    0.12216E-02   -0.24291E-02  1896   0.681E-01    0.204E-01
DAV:   3    -0.862432589144E+02    0.16675E-02   -0.47372E-03  1848   0.387E-01    0.431E-02
DAV:   4    -0.862432700659E+02   -0.11152E-04   -0.56098E-04  1860   0.107E-01    0.218E-02
DAV:   5    -0.862432580964E+02    0.11970E-04   -0.39585E-05  1368   0.274E-02    0.859E-03
DAV:   6    -0.862432553549E+02    0.27415E-05   -0.11399E-05  1152   0.214E-02
  48 F= -.86243255E+02 E0= -.86241966E+02  d E =-.452200E-01
       N       E                     dE             d eps       ncg     rms          rms(c)
DAV:   1    -0.862565979701E+02   -0.13340E-01   -0.11857E-01  1584   0.164E+00    0.208E-01
DAV:   2    -0.862553406183E+02    0.12574E-02   -0.32843E-03  1920   0.268E-01    0.114E-01
DAV:   3    -0.862546755636E+02    0.66505E-03   -0.11529E-03  1860   0.179E-01    0.233E-02
DAV:   4    -0.862546614601E+02    0.14104E-04   -0.19425E-04  1764   0.638E-02    0.133E-02
DAV:   5    -0.862546567711E+02    0.46890E-05   -0.10800E-05  1116   0.173E-02    0.418E-03
DAV:   6    -0.862546552494E+02    0.15217E-05   -0.29154E-06  1044   0.100E-02
  49 F= -.86254655E+02 E0= -.86253230E+02  d E =-.113999E-01
       N       E                     dE             d eps       ncg     rms          rms(c)
DAV:   1    -0.862970332113E+02   -0.42376E-01   -0.10713E+00  1548   0.493E+00    0.628E-01
DAV:   2    -0.862856752898E+02    0.11358E-01   -0.29983E-02  1920   0.813E-01    0.342E-01
DAV:   3    -0.862797139013E+02    0.59614E-02   -0.10298E-02  1848   0.543E-01    0.732E-02
DAV:   4    -0.862795641622E+02    0.14974E-03   -0.18730E-03  1920   0.197E-01    0.409E-02
DAV:   5    -0.862795148764E+02    0.49286E-04   -0.90442E-05  1584   0.507E-02    0.132E-02
DAV:   6    -0.862794986643E+02    0.16212E-04   -0.25270E-05  1632   0.296E-02
  50 F= -.86279499E+02 E0= -.86277659E+02  d E =-.362433E-01
       N       E                     dE             d eps       ncg     rms          rms(c)
DAV:   1    -0.863580956792E+02   -0.78581E-01   -0.43422E+00  1608   0.995E+00    0.127E+00
DAV:   2    -0.863123938457E+02    0.45702E-01   -0.12216E-01  1920   0.165E+00    0.690E-01
DAV:   3    -0.862885402966E+02    0.23854E-01   -0.41921E-02  1896   0.112E+00    0.152E-01
DAV:   4    -0.862879240954E+02    0.61620E-03   -0.79021E-03  1920   0.407E-01    0.834E-02
DAV:   5    -0.862877198347E+02    0.20426E-03   -0.38979E-04  1908   0.105E-01    0.283E-02
DAV:   6    -0.862876509759E+02    0.68859E-04   -0.91142E-05  1680   0.549E-02
  51 F= -.86287651E+02 E0= -.86285139E+02  d E =-.443956E-01
       N       E                     dE             d eps       ncg     rms          rms(c)
DAV:   1    -0.862995891708E+02   -0.11869E-01   -0.52197E-01  1644   0.344E+00    0.439E-01
DAV:   2    -0.862940666632E+02    0.55225E-02   -0.14893E-02  1896   0.574E-01    0.240E-01
DAV:   3    -0.862911483577E+02    0.29183E-02   -0.51119E-03  1896   0.379E-01    0.509E-02
DAV:   4    -0.862910826321E+02    0.65726E-04   -0.89039E-04  1920   0.137E-01    0.283E-02
DAV:   5    -0.862910606807E+02    0.21951E-04   -0.39492E-05  1524   0.341E-02    0.966E-03
DAV:   6    -0.862910534395E+02    0.72412E-05   -0.12201E-05  1308   0.203E-02
  52 F= -.86291053E+02 E0= -.86288732E+02  d E =-.477981E-01
       N       E                     dE             d eps       ncg     rms          rms(c)
DAV:   1    -0.863059012933E+02   -0.14841E-01   -0.43791E-01  1440   0.290E+00    0.350E-01
DAV:   2    -0.863035624445E+02    0.23388E-02   -0.13097E-02  1908   0.493E-01    0.151E-01
DAV:   3    -0.863026938323E+02    0.86861E-03   -0.11361E-03  1800   0.170E-01    0.601E-02
DAV:   4    -0.863025322660E+02    0.16157E-03   -0.59294E-04  1920   0.123E-01    0.144E-02
DAV:   5    -0.863025298005E+02    0.24656E-05   -0.46707E-05  1308   0.322E-02    0.633E-03
DAV:   6    -0.863025279544E+02    0.18461E-05   -0.57659E-06  1152   0.125E-02
  53 F= -.86302528E+02 E0= -.86300242E+02  d E =-.114745E-01
       N       E                     dE             d eps       ncg     rms          rms(c)
DAV:   1    -0.863305470793E+02   -0.28017E-01   -0.21904E+00  1440   0.651E+00    0.786E-01
DAV:   2    -0.863187342051E+02    0.11813E-01   -0.66276E-02  1908   0.111E+00    0.339E-01
DAV:   3    -0.863143457427E+02    0.43885E-02   -0.57160E-03  1836   0.390E-01    0.137E-01
DAV:   4    -0.863135043950E+02    0.84135E-03   -0.31220E-03  1920   0.282E-01    0.330E-02
DAV:   5    -0.863134893045E+02    0.15090E-04   -0.25790E-04  1800   0.740E-02    0.148E-02
DAV:   6    -0.863134771157E+02    0.12189E-04   -0.20884E-05  1680   0.227E-02
  54 F= -.86313477E+02 E0= -.86311283E+02  d E =-.224237E-01
       N       E                     dE             d eps       ncg     rms          rms(c)
DAV:   1    -0.863215757133E+02   -0.80864E-02   -0.14051E-01  1464   0.168E+00    0.226E-01
DAV:   2    -0.863208185866E+02    0.75713E-03   -0.42524E-03  1920   0.305E-01    0.815E-02
DAV:   3    -0.863206973783E+02    0.12121E-03   -0.36403E-04  1740   0.887E-02    0.360E-02
DAV:   4    -0.863206676630E+02    0.29715E-04   -0.94193E-05  1368   0.591E-02    0.858E-03
DAV:   5    -0.863206685982E+02   -0.93520E-06   -0.22635E-05  1008   0.228E-02    0.436E-03
DAV:   6    -0.863206685986E+02   -0.35152E-09   -0.29511E-06   972   0.844E-03
  55 F= -.86320669E+02 E0= -.86318610E+02  d E =-.719148E-02
       N       E                     dE             d eps       ncg     rms          rms(c)
DAV:   1    -0.863398976744E+02   -0.19229E-01   -0.12647E+00  1512   0.506E+00    0.677E-01
DAV:   2    -0.863332321182E+02    0.66656E-02   -0.39397E-02  1896   0.926E-01    0.245E-01
DAV:   3    -0.863321371544E+02    0.10950E-02   -0.31556E-03  1788   0.265E-01    0.110E-01
DAV:   4    -0.863318714357E+02    0.26572E-03   -0.98098E-04  1884   0.179E-01    0.274E-02
DAV:   5    -0.863318678509E+02    0.35848E-05   -0.13082E-04  1428   0.542E-02    0.124E-02
DAV:   6    -0.863318674223E+02    0.42859E-06   -0.21694E-05  1176   0.218E-02
  56 F= -.86331867E+02 E0= -.86330286E+02  d E =-.183903E-01
       N       E                     dE             d eps       ncg     rms          rms(c)
DAV:   1    -0.863325593252E+02   -0.69147E-03   -0.54362E-02  1500   0.105E+00    0.139E-01
DAV:   2    -0.863322711760E+02    0.28815E-03   -0.16300E-03  1896   0.190E-01    0.508E-02
DAV:   3    -0.863322236945E+02    0.47482E-04   -0.13339E-04  1332   0.552E-02    0.226E-02
DAV:   4    -0.863322137046E+02    0.99899E-05   -0.46892E-05  1164   0.403E-02    0.465E-03
DAV:   5    -0.863322142336E+02   -0.52901E-06   -0.77527E-06   960   0.140E-02    0.257E-03
DAV:   6    -0.863322143045E+02   -0.70912E-07   -0.10038E-06   900   0.501E-03
  57 F= -.86332214E+02 E0= -.86330739E+02  d E =-.187372E-01
       N       E                     dE             d eps       ncg     rms          rms(c)
DAV:   1    -0.863402710636E+02   -0.80568E-02   -0.59480E-01  1440   0.309E+00    0.190E-01
DAV:   2    -0.863411049555E+02   -0.83389E-03   -0.11320E-02  1884   0.409E-01    0.104E-01
DAV:   3    -0.863410093505E+02    0.95605E-04   -0.17874E-04  1764   0.758E-02    0.484E-02
DAV:   4    -0.863410108414E+02   -0.14908E-05   -0.11486E-04  1572   0.542E-02    0.101E-02
DAV:   5    -0.863410113299E+02   -0.48856E-06   -0.17006E-05  1032   0.207E-02    0.481E-03
DAV:   6    -0.863410114326E+02   -0.10271E-06   -0.14900E-06   876   0.666E-03
  58 F= -.86341011E+02 E0= -.86339694E+02  d E =-.879713E-02
       N       E                     dE             d eps       ncg     rms          rms(c)
DAV:   1    -0.863505632888E+02   -0.95520E-02   -0.53319E+00  1440   0.924E+00    0.573E-01
DAV:   2    -0.863583857221E+02   -0.78224E-02   -0.10522E-01  1896   0.124E+00    0.312E-01
DAV:   3    -0.863575060156E+02    0.87971E-03   -0.16384E-03  1740   0.230E-01    0.153E-01
DAV:   4    -0.863575503188E+02   -0.44303E-04   -0.11556E-03  1776   0.172E-01    0.338E-02
DAV:   5    -0.863575521637E+02   -0.18449E-05   -0.17190E-04  1824   0.639E-02    0.157E-02
DAV:   6    -0.863575534841E+02   -0.13203E-05   -0.89189E-06  1332   0.159E-02
  59 F= -.86357553E+02 E0= -.86356683E+02  d E =-.253392E-01
       N       E                     dE             d eps       ncg     rms          rms(c)
DAV:   1    -0.863173421342E+02    0.40210E-01   -0.21154E+01  1440   0.184E+01    0.116E+00
DAV:   2    -0.863513480750E+02   -0.34006E-01   -0.44916E-01  1872   0.251E+00    0.630E-01
DAV:   3    -0.863479615603E+02    0.33865E-02   -0.69938E-03  1800   0.472E-01    0.326E-01
DAV:   4    -0.863478672107E+02    0.94350E-04   -0.50876E-03  1764   0.362E-01    0.765E-02
DAV:   5    -0.863478733697E+02   -0.61590E-05   -0.85891E-04  1836   0.142E-01    0.331E-02
DAV:   6    -0.863478797661E+02   -0.63964E-05   -0.41334E-05  1368   0.331E-02
  60 F= -.86347880E+02 E0= -.86347607E+02  d E =-.156655E-01
       N       E                     dE             d eps       ncg     rms          rms(c)
DAV:   1    -0.863484640081E+02   -0.59064E-03   -0.97292E+00  1440   0.126E+01    0.756E-01
DAV:   2    -0.863617858001E+02   -0.13322E-01   -0.17665E-01  1872   0.163E+00    0.412E-01
DAV:   3    -0.863604960672E+02    0.12897E-02   -0.28022E-03  1836   0.294E-01    0.173E-01
DAV:   4    -0.863605554932E+02   -0.59426E-04   -0.14690E-03  1860   0.190E-01    0.349E-02
DAV:   5    -0.863605621508E+02   -0.66575E-05   -0.18386E-04  1776   0.667E-02    0.100E-02
DAV:   6    -0.863605624192E+02   -0.26842E-06   -0.65318E-06  1296   0.126E-02
  61 F= -.86360562E+02 E0= -.86359938E+02  d E =-.283481E-01
       N       E                     dE             d eps       ncg     rms          rms(c)
DAV:   1    -0.863656400693E+02   -0.50779E-02   -0.12166E-01  1440   0.136E+00    0.868E-02
DAV:   2    -0.863657966329E+02   -0.15656E-03   -0.18187E-03  1872   0.164E-01    0.475E-02
DAV:   3    -0.863657980264E+02   -0.13935E-05   -0.41259E-05  1056   0.316E-02    0.179E-02
DAV:   4    -0.863658000770E+02   -0.20507E-05   -0.84154E-06   900   0.144E-02    0.632E-03
DAV:   5    -0.863658005710E+02   -0.49395E-06   -0.23927E-06   840   0.772E-03    0.181E-03
DAV:   6    -0.863658005480E+02    0.22970E-07   -0.29479E-07   756   0.270E-03
  62 F= -.86365801E+02 E0= -.86365180E+02  d E =-.523813E-02
       N       E                     dE             d eps       ncg     rms          rms(c)
DAV:   1    -0.863781475033E+02   -0.12347E-01   -0.10950E+00  1440   0.408E+00    0.259E-01
DAV:   2    -0.863795961418E+02   -0.14486E-02   -0.16450E-02  1872   0.493E-01    0.142E-01
DAV:   3    -0.863796098364E+02   -0.13695E-04   -0.41274E-04  1788   0.966E-02    0.548E-02
DAV:   4    -0.863796273702E+02   -0.17534E-04   -0.66458E-05  1560   0.403E-02    0.197E-02
DAV:   5    -0.863796323282E+02   -0.49580E-05   -0.16242E-05  1020   0.202E-02    0.509E-03
DAV:   6    -0.863796323259E+02    0.22749E-08   -0.24252E-06   888   0.740E-03
  63 F= -.86379632E+02 E0= -.86379024E+02  d E =-.190699E-01
       N       E                     dE             d eps       ncg     rms          rms(c)
DAV:   1    -0.863925030044E+02   -0.12871E-01   -0.43859E+00  1440   0.815E+00    0.516E-01
DAV:   2    -0.863985162248E+02   -0.60132E-02   -0.67141E-02  1860   0.990E-01    0.286E-01
DAV:   3    -0.863985432700E+02   -0.27045E-04   -0.17973E-03  1776   0.202E-01    0.113E-01
DAV:   4    -0.863986131390E+02   -0.69869E-04   -0.28483E-04  1872   0.817E-02    0.421E-02
DAV:   5    -0.863986315427E+02   -0.18404E-04   -0.79216E-05  1584   0.428E-02    0.105E-02
DAV:   6    -0.863986313541E+02    0.18863E-06   -0.97603E-06  1116   0.156E-02
  64 F= -.86398631E+02 E0= -.86398049E+02  d E =-.380689E-01
       N       E                     dE             d eps       ncg     rms          rms(c)
DAV:   1    -0.863738921587E+02    0.24739E-01   -0.17552E+01  1440   0.162E+01    0.102E+00
DAV:   2    -0.864001797463E+02   -0.26288E-01   -0.28465E-01  1860   0.201E+00    0.579E-01
DAV:   3    -0.863999149763E+02    0.26477E-03   -0.80322E-03  1788   0.428E-01    0.246E-01
DAV:   4    -0.864002402152E+02   -0.32524E-03   -0.12250E-03  1812   0.166E-01    0.916E-02
DAV:   5    -0.864002990384E+02   -0.58823E-04   -0.44116E-04  1860   0.101E-01    0.216E-02
DAV:   6    -0.864002978416E+02    0.11969E-05   -0.40081E-05  1356   0.317E-02
  65 F= -.86400298E+02 E0= -.86399773E+02  d E =-.397354E-01
       N       E                     dE             d eps       ncg     rms          rms(c)
DAV:   1    -0.864004631005E+02   -0.16406E-03   -0.40898E+00  1440   0.783E+00    0.505E-01
DAV:   2    -0.864055638615E+02   -0.51008E-02   -0.59863E-02  1848   0.933E-01    0.267E-01
DAV:   3    -0.864056567489E+02   -0.92887E-04   -0.10478E-03  1812   0.151E-01    0.106E-01
DAV:   4    -0.864057312291E+02   -0.74480E-04   -0.25344E-04  1848   0.776E-02    0.250E-02
DAV:   5    -0.864057414227E+02   -0.10194E-04   -0.21960E-05  1140   0.217E-02    0.100E-02
DAV:   6    -0.864057414956E+02   -0.72838E-07   -0.50172E-06   876   0.117E-02
  66 F= -.86405741E+02 E0= -.86405188E+02  d E =-.451791E-01
       N       E                     dE             d eps       ncg     rms          rms(c)
DAV:   1    -0.864190271584E+02   -0.13286E-01   -0.15088E+00  1440   0.491E+00    0.301E-01
DAV:   2    -0.864209506609E+02   -0.19235E-02   -0.25136E-02  1920   0.626E-01    0.168E-01
DAV:   3    -0.864207720818E+02    0.17858E-03   -0.62484E-04  1752   0.131E-01    0.665E-02
DAV:   4    -0.864208056477E+02   -0.33566E-04   -0.20975E-04  1896   0.714E-02    0.194E-02
DAV:   5    -0.864208070967E+02   -0.14490E-05   -0.28304E-05  1116   0.278E-02    0.793E-03
DAV:   6    -0.864208074394E+02   -0.34265E-06   -0.47649E-06   996   0.112E-02
  67 F= -.86420807E+02 E0= -.86419951E+02  d E =-.150659E-01
       N       E                     dE             d eps       ncg     rms          rms(c)
DAV:   1    -0.864273430720E+02   -0.65360E-02   -0.13604E+01  1440   0.147E+01    0.908E-01
DAV:   2    -0.864465205884E+02   -0.19178E-01   -0.24433E-01  1908   0.192E+00    0.514E-01
DAV:   3    -0.864445863082E+02    0.19343E-02   -0.58659E-03  1824   0.397E-01    0.224E-01
DAV:   4    -0.864447879975E+02   -0.20169E-03   -0.21311E-03  1788   0.229E-01    0.660E-02
DAV:   5    -0.864448042134E+02   -0.16216E-04   -0.42444E-04  1836   0.105E-01    0.253E-02
DAV:   6    -0.864448052672E+02   -0.10537E-05   -0.59582E-05  1344   0.397E-02
  68 F= -.86444805E+02 E0= -.86442696E+02  d E =-.390638E-01
       N       E                     dE             d eps       ncg     rms          rms(c)
DAV:   1    -0.864448669410E+02   -0.62728E-04   -0.99725E-01  1440   0.398E+00    0.244E-01
DAV:   2    -0.864461328988E+02   -0.12660E-02   -0.16777E-02  1908   0.512E-01    0.137E-01
DAV:   3    -0.864460159526E+02    0.11695E-03   -0.42918E-04  1788   0.109E-01    0.531E-02
DAV:   4    -0.864460409431E+02   -0.24990E-04   -0.14504E-04  1872   0.589E-02    0.155E-02
DAV:   5    -0.864460419184E+02   -0.97529E-06   -0.17446E-05  1128   0.217E-02    0.649E-03
DAV:   6    -0.864460421578E+02   -0.23943E-06   -0.28999E-06  1080   0.871E-03
  69 F= -.86446042E+02 E0= -.86443608E+02  d E =-.403007E-01
       N       E                     dE             d eps       ncg     rms          rms(c)
DAV:   1    -0.864555602885E+02   -0.95184E-02   -0.25587E+00  1440   0.638E+00    0.448E-01
DAV:   2    -0.864583617859E+02   -0.28015E-02   -0.50749E-02  1908   0.883E-01    0.228E-01
DAV:   3    -0.864579222711E+02    0.43951E-03   -0.10765E-03  1824   0.168E-01    0.114E-01
DAV:   4    -0.864579224082E+02   -0.13713E-06   -0.58342E-04  1824   0.122E-01    0.231E-02
DAV:   5    -0.864579267312E+02   -0.43230E-05   -0.11622E-04  1536   0.559E-02    0.123E-02
DAV:   6    -0.864579257007E+02    0.10304E-05   -0.94046E-06  1272   0.146E-02
  70 F= -.86457926E+02 E0= -.86455180E+02  d E =-.118835E-01
       N       E                     dE             d eps       ncg     rms          rms(c)
DAV:   1    -0.864597053149E+02   -0.17786E-02   -0.29459E+00  1440   0.684E+00    0.482E-01
DAV:   2    -0.864628828886E+02   -0.31776E-02   -0.58329E-02  1896   0.947E-01    0.244E-01
DAV:   3    -0.864623907176E+02    0.49217E-03   -0.12483E-03  1788   0.180E-01    0.122E-01
DAV:   4    -0.864623907794E+02   -0.61802E-07   -0.67220E-04  1848   0.131E-01    0.248E-02
DAV:   5    -0.864623953022E+02   -0.45228E-05   -0.13569E-04  1704   0.596E-02    0.135E-02
DAV:   6    -0.864623937775E+02    0.15247E-05   -0.81715E-06  1272   0.132E-02
  71 F= -.86462394E+02 E0= -.86459573E+02  d E =-.163516E-01
       N       E                     dE             d eps       ncg     rms          rms(c)
DAV:   1    -0.864686929208E+02   -0.62976E-02   -0.10448E+00  1440   0.403E+00    0.249E-01
DAV:   2    -0.864695962854E+02   -0.90336E-03   -0.14156E-02  1884   0.457E-01    0.143E-01
DAV:   3    -0.864694701678E+02    0.12612E-03   -0.31520E-04  1872   0.846E-02    0.621E-02
DAV:   4    -0.864694933801E+02   -0.23212E-04   -0.14791E-04  1836   0.555E-02    0.137E-02
DAV:   5    -0.864694927960E+02    0.58420E-06   -0.21621E-05  1260   0.226E-02    0.571E-03
DAV:   6    -0.864694928944E+02   -0.98486E-07   -0.29813E-06  1140   0.825E-03
  72 F= -.86469493E+02 E0= -.86466649E+02  d E =-.709912E-02
       N       E                     dE             d eps       ncg     rms          rms(c)
DAV:   1    -0.864764408525E+02   -0.69481E-02   -0.93370E+00  1440   0.120E+01    0.758E-01
DAV:   2    -0.864855362524E+02   -0.90954E-02   -0.13761E-01  1884   0.140E+00    0.434E-01
DAV:   3    -0.864842278781E+02    0.13084E-02   -0.28013E-03  1848   0.251E-01    0.209E-01
DAV:   4    -0.864842797445E+02   -0.51866E-04   -0.16171E-03  1668   0.183E-01    0.469E-02
DAV:   5    -0.864842731778E+02    0.65667E-05   -0.30380E-04  1908   0.818E-02    0.197E-02
DAV:   6    -0.864842719250E+02    0.12528E-05   -0.30794E-05  1284   0.274E-02
  73 F= -.86484272E+02 E0= -.86481438E+02  d E =-.218781E-01
       N       E                     dE             d eps       ncg     rms          rms(c)
DAV:   1    -0.864502531564E+02    0.34020E-01   -0.36889E+01  1440   0.238E+01    0.155E+00
DAV:   2    -0.864911656849E+02   -0.40913E-01   -0.62966E-01  1836   0.293E+00    0.878E-01
DAV:   3    -0.864862152510E+02    0.49504E-02   -0.12299E-02  1860   0.519E-01    0.465E-01
DAV:   4    -0.864866381413E+02   -0.42289E-03   -0.80813E-03  1764   0.399E-01    0.113E-01
DAV:   5    -0.864865601946E+02    0.77947E-04   -0.17086E-03  1908   0.193E-01    0.415E-02
DAV:   6    -0.864865554548E+02    0.47399E-05   -0.13337E-04  1536   0.542E-02
  74 F= -.86486555E+02 E0= -.86484048E+02  d E =-.241617E-01
       N       E                     dE             d eps       ncg     rms          rms(c)
DAV:   1    -0.864850047481E+02    0.15554E-02   -0.75766E+00  1440   0.108E+01    0.663E-01
DAV:   2    -0.864905238387E+02   -0.55191E-02   -0.91262E-02  1872   0.119E+00    0.382E-01
DAV:   3    -0.864898348198E+02    0.68902E-03   -0.26137E-03  1824   0.249E-01    0.135E-01
DAV:   4    -0.864899191332E+02   -0.84313E-04   -0.66790E-04  1716   0.115E-01    0.311E-02
DAV:   5    -0.864899178049E+02    0.13282E-05   -0.58601E-05  1608   0.370E-02    0.637E-03
DAV:   6    -0.864899179817E+02   -0.17677E-06   -0.63962E-06  1092   0.112E-02
  75 F= -.86489918E+02 E0= -.86487223E+02  d E =-.275242E-01
       N       E                     dE             d eps       ncg     rms          rms(c)
DAV:   1    -0.864986124204E+02   -0.86946E-02   -0.12308E+00  1440   0.450E+00    0.308E-01
DAV:   2    -0.864995952547E+02   -0.98283E-03   -0.16606E-02  1848   0.503E-01    0.189E-01
DAV:   3    -0.864994569685E+02    0.13829E-03   -0.10778E-03  1740   0.163E-01    0.579E-02
DAV:   4    -0.864994351838E+02    0.21785E-04   -0.18051E-04  1884   0.633E-02    0.266E-02
DAV:   5    -0.864994388579E+02   -0.36741E-05   -0.32967E-05  1224   0.268E-02    0.638E-03
DAV:   6    -0.864994387268E+02    0.13112E-06   -0.36711E-06   996   0.950E-03
  76 F= -.86499439E+02 E0= -.86496642E+02  d E =-.952075E-02
       N       E                     dE             d eps       ncg     rms          rms(c)
DAV:   1    -0.865029258112E+02   -0.34870E-02   -0.37909E+00  1440   0.785E+00    0.539E-01
DAV:   2    -0.865063483580E+02   -0.34225E-02   -0.52917E-02  1860   0.882E-01    0.335E-01
DAV:   3    -0.865058234128E+02    0.52495E-03   -0.36298E-03  1728   0.296E-01    0.107E-01
DAV:   4    -0.865057454667E+02    0.77946E-04   -0.56162E-04  1884   0.111E-01    0.489E-02
DAV:   5    -0.865057528679E+02   -0.74012E-05   -0.14548E-04  1764   0.537E-02    0.118E-02
DAV:   6    -0.865057520602E+02    0.80766E-06   -0.11100E-05  1320   0.173E-02
  77 F= -.86505752E+02 E0= -.86502835E+02  d E =-.158341E-01
       N       E                     dE             d eps       ncg     rms          rms(c)
DAV:   1    -0.865119424400E+02   -0.61896E-02   -0.33916E+00  1440   0.726E+00    0.437E-01
DAV:   2    -0.865154368761E+02   -0.34944E-02   -0.53618E-02  1896   0.872E-01    0.269E-01
DAV:   3    -0.865147822043E+02    0.65467E-03   -0.23537E-03  1776   0.245E-01    0.862E-02
DAV:   4    -0.865148032856E+02   -0.21081E-04   -0.46559E-04  1920   0.914E-02    0.347E-02
DAV:   5    -0.865148147120E+02   -0.11426E-04   -0.35565E-05  1560   0.280E-02    0.113E-02
DAV:   6    -0.865148135225E+02    0.11895E-05   -0.75243E-06  1308   0.152E-02
  78 F= -.86514814E+02 E0= -.86511832E+02  d E =-.906146E-02
       N       E                     dE             d eps       ncg     rms          rms(c)
DAV:   1    -0.865153087600E+02   -0.49405E-03   -0.10976E+00  1440   0.412E+00    0.247E-01
DAV:   2    -0.865164116840E+02   -0.11029E-02   -0.17124E-02  1896   0.492E-01    0.152E-01
DAV:   3    -0.865162164732E+02    0.19521E-03   -0.69232E-04  1812   0.133E-01    0.484E-02
DAV:   4    -0.865162245644E+02   -0.80913E-05   -0.14708E-04  1920   0.506E-02    0.185E-02
DAV:   5    -0.865162266808E+02   -0.21163E-05   -0.89073E-06  1272   0.143E-02    0.629E-03
DAV:   6    -0.865162262345E+02    0.44623E-06   -0.19890E-06  1200   0.796E-03
  79 F= -.86516226E+02 E0= -.86513216E+02  d E =-.104742E-01
       N       E                     dE             d eps       ncg     rms          rms(c)
DAV:   1    -0.865236012049E+02   -0.73745E-02   -0.10067E+00  1440   0.398E+00    0.296E-01
DAV:   2    -0.865242190473E+02   -0.61784E-03   -0.14926E-02  1848   0.471E-01    0.163E-01
DAV:   3    -0.865240189337E+02    0.20011E-03   -0.40133E-04  1872   0.996E-02    0.667E-02
DAV:   4    -0.865240256961E+02   -0.67624E-05   -0.19677E-04  1884   0.635E-02    0.138E-02
DAV:   5    -0.865240253295E+02    0.36662E-06   -0.26448E-05  1212   0.237E-02    0.474E-03
DAV:   6    -0.865240252378E+02    0.91781E-07   -0.25780E-06  1056   0.768E-03
  80 F= -.86524025E+02 E0= -.86521029E+02  d E =-.779900E-02
       N       E                     dE             d eps       ncg     rms          rms(c)
DAV:   1    -0.865340722638E+02   -0.10047E-01   -0.90734E+00  1440   0.120E+01    0.906E-01
DAV:   2    -0.865399048619E+02   -0.58326E-02   -0.14681E-01  1860   0.147E+00    0.487E-01
DAV:   3    -0.865380554070E+02    0.18495E-02   -0.35230E-03  1800   0.303E-01    0.222E-01
DAV:   4    -0.865379569568E+02    0.98450E-04   -0.22590E-03  1800   0.219E-01    0.450E-02
DAV:   5    -0.865379491931E+02    0.77637E-05   -0.36853E-04  1860   0.861E-02    0.199E-02
DAV:   6    -0.865379442517E+02    0.49414E-05   -0.20771E-05  1332   0.233E-02
  81 F= -.86537944E+02 E0= -.86535006E+02  d E =-.217180E-01
       N       E                     dE             d eps       ncg     rms          rms(c)
DAV:   1    -0.865386780707E+02   -0.72888E-03   -0.17398E+00  1440   0.527E+00    0.395E-01
DAV:   2    -0.865396884759E+02   -0.10104E-02   -0.27374E-02  1896   0.641E-01    0.211E-01
DAV:   3    -0.865393192563E+02    0.36922E-03   -0.72394E-04  1776   0.133E-01    0.916E-02
DAV:   4    -0.865393181216E+02    0.11347E-05   -0.37379E-04  1860   0.894E-02    0.185E-02
DAV:   5    -0.865393178344E+02    0.28716E-06   -0.47740E-05  1476   0.315E-02    0.680E-03
DAV:   6    -0.865393177743E+02    0.60127E-07   -0.44345E-06  1140   0.984E-03
  82 F= -.86539318E+02 E0= -.86536413E+02  d E =-.230915E-01
       N       E                     dE             d eps       ncg     rms          rms(c)
DAV:   1    -0.865435051846E+02   -0.41874E-02   -0.36935E-01  1440   0.275E+00    0.216E-01
DAV:   2    -0.865433826744E+02    0.12251E-03   -0.66075E-03  1920   0.386E-01    0.127E-01
DAV:   3    -0.865431673975E+02    0.21528E-03   -0.95122E-04  1740   0.170E-01    0.413E-02
DAV:   4    -0.865431519182E+02    0.15479E-04   -0.17223E-04  1608   0.647E-02    0.191E-02
DAV:   5    -0.865431508846E+02    0.10336E-05   -0.19877E-05  1200   0.241E-02    0.559E-03
DAV:   6    -0.865431503457E+02    0.53895E-06   -0.48130E-06  1224   0.122E-02
  83 F= -.86543150E+02 E0= -.86540224E+02  d E =-.383257E-02
       N       E                     dE             d eps       ncg     rms          rms(c)
DAV:   1    -0.865433855109E+02   -0.23463E-03   -0.29723E-02  1512   0.781E-01    0.609E-02
DAV:   2    -0.865433763284E+02    0.91825E-05   -0.53619E-04  1872   0.110E-01    0.359E-02
DAV:   3    -0.865433573933E+02    0.18935E-04   -0.70411E-05  1224   0.479E-02    0.109E-02
DAV:   4    -0.865433565391E+02    0.85425E-06   -0.14285E-05   996   0.190E-02    0.513E-03
DAV:   5    -0.865433564145E+02    0.12456E-06   -0.25379E-06  1008   0.791E-03    0.171E-03
DAV:   6    -0.865433563540E+02    0.60564E-07   -0.50904E-07   912   0.408E-03
  84 F= -.86543356E+02 E0= -.86540450E+02  d E =-.403858E-02
       N       E                     dE             d eps       ncg     rms          rms(c)
DAV:   1    -0.865456507755E+02   -0.22944E-02   -0.67019E-01  1440   0.345E+00    0.211E-01
DAV:   2    -0.865462468296E+02   -0.59605E-03   -0.13567E-02  1908   0.485E-01    0.132E-01
DAV:   3    -0.865459737668E+02    0.27306E-03   -0.68921E-04  1716   0.148E-01    0.429E-02
DAV:   4    -0.865459761476E+02   -0.23808E-05   -0.16562E-04  1836   0.572E-02    0.147E-02
DAV:   5    -0.865459772852E+02   -0.11376E-05   -0.57183E-06  1236   0.130E-02    0.564E-03
DAV:   6    -0.865459770718E+02    0.21337E-06   -0.16172E-06  1164   0.756E-03
  85 F= -.86545977E+02 E0= -.86543233E+02  d E =-.262072E-02
       N       E                     dE             d eps       ncg     rms          rms(c)
DAV:   1    -0.865459927485E+02   -0.15463E-04   -0.48803E-03  1548   0.295E-01    0.179E-02
DAV:   2    -0.865459971150E+02   -0.43665E-05   -0.98834E-05  1668   0.414E-02    0.112E-02
DAV:   3    -0.865459949991E+02    0.21159E-05   -0.55993E-06  1056   0.135E-02    0.365E-03
DAV:   4    -0.865459950233E+02   -0.24218E-07   -0.15613E-06   888   0.583E-03    0.119E-03
DAV:   5    -0.865459950309E+02   -0.76709E-08   -0.14861E-07   900   0.196E-03    0.440E-04
DAV:   6    -0.865459950257E+02    0.52487E-08   -0.25871E-08   876   0.907E-04
  86 F= -.86545995E+02 E0= -.86543272E+02  d E =-.263867E-02
       N       E                     dE             d eps       ncg     rms          rms(c)
DAV:   1    -0.865487598907E+02   -0.27649E-02   -0.33380E-01  1440   0.235E+00    0.153E-01
DAV:   2    -0.865491978495E+02   -0.43796E-03   -0.56570E-03  1908   0.299E-01    0.846E-02
DAV:   3    -0.865491690730E+02    0.28776E-04   -0.92018E-05  1572   0.499E-02    0.372E-02
DAV:   4    -0.865491752815E+02   -0.62085E-05   -0.51838E-05  1464   0.351E-02    0.707E-03
DAV:   5    -0.865491755364E+02   -0.25485E-06   -0.77980E-06  1104   0.134E-02    0.257E-03
DAV:   6    -0.865491756246E+02   -0.88258E-07   -0.68175E-07  1008   0.447E-03
  87 F= -.86549176E+02 E0= -.86546481E+02  d E =-.318060E-02
       N       E                     dE             d eps       ncg     rms          rms(c)
DAV:   1    -0.865508715853E+02   -0.16960E-02   -0.30302E+00  1440   0.709E+00    0.461E-01
DAV:   2    -0.865550285911E+02   -0.41570E-02   -0.53591E-02  1908   0.917E-01    0.253E-01
DAV:   3    -0.865547080196E+02    0.32057E-03   -0.85710E-04  1812   0.149E-01    0.118E-01
DAV:   4    -0.865547453965E+02   -0.37377E-04   -0.47107E-04  1788   0.105E-01    0.222E-02
DAV:   5    -0.865547466739E+02   -0.12774E-05   -0.70057E-05  1524   0.389E-02    0.903E-03
DAV:   6    -0.865547464965E+02    0.17740E-06   -0.56357E-06  1248   0.127E-02
  88 F= -.86554746E+02 E0= -.86552149E+02  d E =-.875147E-02
       N       E                     dE             d eps       ncg     rms          rms(c)
DAV:   1    -0.865545871599E+02    0.15951E-03   -0.61649E-01  1440   0.320E+00    0.207E-01
DAV:   2    -0.865554052594E+02   -0.81810E-03   -0.10672E-02  1908   0.411E-01    0.112E-01
DAV:   3    -0.865553471584E+02    0.58101E-04   -0.17512E-04  1800   0.674E-02    0.513E-02
DAV:   4    -0.865553592081E+02   -0.12050E-04   -0.85073E-05  1632   0.455E-02    0.924E-03
DAV:   5    -0.865553600046E+02   -0.79647E-06   -0.13365E-05  1176   0.175E-02    0.336E-03
DAV:   6    -0.865553600262E+02   -0.21603E-07   -0.10473E-06  1092   0.534E-03
  89 F= -.86555360E+02 E0= -.86552812E+02  d E =-.936500E-02
       N       E                     dE             d eps       ncg     rms          rms(c)
DAV:   1    -0.865571799954E+02   -0.18200E-02   -0.22169E-01  1440   0.188E+00    0.104E-01
DAV:   2    -0.865574807463E+02   -0.30075E-03   -0.35451E-03  1920   0.231E-01    0.614E-02
DAV:   3    -0.865574589577E+02    0.21789E-04   -0.58710E-05  1356   0.404E-02    0.248E-02
DAV:   4    -0.865574621125E+02   -0.31548E-05   -0.29164E-05  1236   0.254E-02    0.599E-03
DAV:   5    -0.865574622240E+02   -0.11147E-06   -0.38571E-06  1020   0.931E-03    0.268E-03
DAV:   6    -0.865574621826E+02    0.41322E-07   -0.43982E-07   864   0.377E-03
  90 F= -.86557462E+02 E0= -.86554863E+02  d E =-.210216E-02
       N       E                     dE             d eps       ncg     rms          rms(c)
DAV:   1    -0.865584710425E+02   -0.10088E-02   -0.20008E+00  1440   0.564E+00    0.312E-01
DAV:   2    -0.865612848448E+02   -0.28138E-02   -0.32658E-02  1908   0.697E-01    0.183E-01
DAV:   3    -0.865610678364E+02    0.21701E-03   -0.56152E-04  1764   0.121E-01    0.769E-02
DAV:   4    -0.865610996791E+02   -0.31843E-04   -0.23870E-04  1884   0.722E-02    0.186E-02
DAV:   5    -0.865611009735E+02   -0.12944E-05   -0.24029E-05  1260   0.225E-02    0.843E-03
DAV:   6    -0.865611008255E+02    0.14804E-06   -0.36136E-06  1176   0.105E-02
  91 F= -.86561101E+02 E0= -.86558362E+02  d E =-.574080E-02
       N       E                     dE             d eps       ncg     rms          rms(c)
DAV:   1    -0.865610252749E+02    0.75699E-04   -0.28373E-01  1440   0.212E+00    0.116E-01
DAV:   2    -0.865614138506E+02   -0.38858E-03   -0.45476E-03  1920   0.261E-01    0.683E-02
DAV:   3    -0.865613857843E+02    0.28066E-04   -0.73127E-05  1548   0.448E-02    0.283E-02
DAV:   4    -0.865613890046E+02   -0.32202E-05   -0.35216E-05  1368   0.284E-02    0.650E-03
DAV:   5    -0.865613892588E+02   -0.25423E-06   -0.46660E-06  1044   0.101E-02    0.307E-03
DAV:   6    -0.865613891987E+02    0.60091E-07   -0.55513E-07   984   0.424E-03
  92 F= -.86561389E+02 E0= -.86558604E+02  d E =-.602917E-02
       N       E                     dE             d eps       ncg     rms          rms(c)
DAV:   1    -0.865635699654E+02   -0.21807E-02   -0.20299E-01  1440   0.187E+00    0.150E-01
DAV:   2    -0.865635829102E+02   -0.12945E-04   -0.36182E-03  1920   0.262E-01    0.719E-02
DAV:   3    -0.865635442913E+02    0.38619E-04   -0.21158E-04  1764   0.749E-02    0.299E-02
DAV:   4    -0.865635421256E+02    0.21657E-05   -0.37753E-05  1320   0.335E-02    0.110E-02
DAV:   5    -0.865635426901E+02   -0.56451E-06   -0.66171E-06  1140   0.143E-02    0.334E-03
DAV:   6    -0.865635427084E+02   -0.18316E-07   -0.19122E-06  1080   0.779E-03
  93 F= -.86563543E+02 E0= -.86560664E+02  d E =-.215351E-02
       N       E                     dE             d eps       ncg     rms          rms(c)
DAV:   1    -0.865649711504E+02   -0.14285E-02   -0.52944E-01  1440   0.302E+00    0.239E-01
DAV:   2    -0.865650314301E+02   -0.60280E-04   -0.93883E-03  1920   0.421E-01    0.116E-01
DAV:   3    -0.865649286983E+02    0.10273E-03   -0.56717E-04  1752   0.123E-01    0.476E-02
DAV:   4    -0.865649234335E+02    0.52648E-05   -0.10065E-04  1536   0.539E-02    0.184E-02
DAV:   5    -0.865649249344E+02   -0.15009E-05   -0.16716E-05  1248   0.230E-02    0.527E-03
DAV:   6    -0.865649250868E+02   -0.15234E-06   -0.52246E-06  1200   0.126E-02
  94 F= -.86564925E+02 E0= -.86561983E+02  d E =-.353589E-02
       N       E                     dE             d eps       ncg     rms          rms(c)
DAV:   1    -0.865649274704E+02   -0.25360E-05   -0.65465E-04  1740   0.107E-01    0.802E-03
DAV:   2    -0.865649276561E+02   -0.18570E-06   -0.12096E-05  1092   0.152E-02    0.400E-03
DAV:   3    -0.865649275389E+02    0.11724E-06   -0.12769E-06  1008   0.590E-03    0.149E-03
DAV:   4    -0.865649275302E+02    0.86454E-08   -0.15130E-07  1008   0.210E-03    0.602E-04
DAV:   5    -0.865649275291E+02    0.10825E-08   -0.36277E-08   924   0.974E-04    0.196E-04
DAV:   6    -0.865649275287E+02    0.47066E-09   -0.87865E-09   900   0.531E-04
  95 F= -.86564928E+02 E0= -.86561986E+02  d E =-.353833E-02
       N       E                     dE             d eps       ncg     rms          rms(c)
DAV:   1    -0.865651838024E+02   -0.25627E-03   -0.32837E-03  1536   0.277E-01    0.262E-02
DAV:   2    -0.865651787399E+02    0.50625E-05   -0.59439E-05  1212   0.399E-02    0.139E-02
DAV:   3    -0.865651769516E+02    0.17883E-05   -0.11310E-05   948   0.173E-02    0.478E-03
DAV:   4    -0.865651769238E+02    0.27781E-07   -0.18016E-06   840   0.730E-03    0.142E-03
DAV:   5    -0.865651770061E+02   -0.82264E-07   -0.27174E-07   804   0.277E-03    0.574E-04
DAV:   6    -0.865651770270E+02   -0.20959E-07   -0.83699E-08   792   0.146E-03
  96 F= -.86565177E+02 E0= -.86562237E+02  d E =-.249498E-03
       N       E                     dE             d eps       ncg     rms          rms(c)
DAV:   1    -0.865656541916E+02   -0.47719E-03   -0.29539E-02  1464   0.830E-01    0.787E-02
DAV:   2    -0.865656076194E+02    0.46572E-04   -0.56909E-04  1920   0.120E-01    0.415E-02
DAV:   3    -0.865655845806E+02    0.23039E-04   -0.59892E-05  1248   0.398E-02    0.147E-02
DAV:   4    -0.865655830243E+02    0.15563E-05   -0.12915E-05  1152   0.185E-02    0.370E-03
DAV:   5    -0.865655832906E+02   -0.26634E-06   -0.16216E-06  1020   0.679E-03    0.165E-03
DAV:   6    -0.865655834189E+02   -0.12830E-06   -0.45291E-07  1008   0.337E-03
  97 F= -.86565583E+02 E0= -.86562650E+02  d E =-.655890E-03
       N       E                     dE             d eps       ncg     rms          rms(c)
DAV:   1    -0.865658040081E+02   -0.22072E-03   -0.35050E-03  1488   0.265E-01    0.167E-02
DAV:   2    -0.865658066523E+02   -0.26441E-05   -0.57537E-05  1524   0.350E-02    0.101E-02
DAV:   3    -0.865658053001E+02    0.13522E-05   -0.37365E-06  1044   0.103E-02    0.215E-03
DAV:   4    -0.865658053056E+02   -0.55063E-08   -0.73395E-07   876   0.421E-03    0.919E-04
DAV:   5    -0.865658052900E+02    0.15669E-07   -0.96228E-08   828   0.170E-03    0.344E-04
DAV:   6    -0.865658052876E+02    0.23488E-08   -0.17746E-08   792   0.677E-04
  98 F= -.86565805E+02 E0= -.86562873E+02  d E =-.221869E-03
       N       E                     dE             d eps       ncg     rms          rms(c)
DAV:   1    -0.865662570208E+02   -0.45173E-03   -0.31547E-02  1440   0.795E-01    0.503E-02
DAV:   2    -0.865662828648E+02   -0.25844E-04   -0.52782E-04  1920   0.105E-01    0.304E-02
DAV:   3    -0.865662705280E+02    0.12337E-04   -0.23513E-05  1164   0.265E-02    0.683E-03
DAV:   4    -0.865662708553E+02   -0.32726E-06   -0.59578E-06   948   0.118E-02    0.289E-03
DAV:   5    -0.865662708009E+02    0.54334E-07   -0.65134E-07   900   0.451E-03    0.108E-03
DAV:   6    -0.865662707997E+02    0.12585E-08   -0.12403E-07   840   0.182E-03
  99 F= -.86566271E+02 E0= -.86563343E+02  d E =-.687381E-03
       N       E                     dE             d eps       ncg     rms          rms(c)
DAV:   1    -0.865662457760E+02    0.25025E-04   -0.12612E-01  1440   0.159E+00    0.101E-01
DAV:   2    -0.865663522328E+02   -0.10646E-03   -0.21224E-03  1920   0.210E-01    0.607E-02
DAV:   3    -0.865663042471E+02    0.47986E-04   -0.93191E-05  1356   0.528E-02    0.137E-02
DAV:   4    -0.865663059454E+02   -0.16983E-05   -0.23588E-05  1068   0.234E-02    0.573E-03
DAV:   5    -0.865663058623E+02    0.83067E-07   -0.25603E-06   972   0.893E-03    0.213E-03
DAV:   6    -0.865663058910E+02   -0.28679E-07   -0.49160E-07   972   0.361E-03
 100 F= -.86566306E+02 E0= -.86563385E+02  d E =-.722472E-03
       N       E                     dE             d eps       ncg     rms          rms(c)
DAV:   1    -0.865664259698E+02   -0.12011E-03   -0.27789E-02  1440   0.746E-01    0.473E-02
DAV:   2    -0.865664500309E+02   -0.24061E-04   -0.46696E-04  1920   0.984E-02    0.285E-02
DAV:   3    -0.865664401462E+02    0.98846E-05   -0.20453E-05  1068   0.248E-02    0.654E-03
DAV:   4    -0.865664407448E+02   -0.59861E-06   -0.51807E-06   780   0.110E-02    0.271E-03
DAV:   5    -0.865664408110E+02   -0.66171E-07   -0.57509E-07   756   0.421E-03    0.106E-03
DAV:   6    -0.865664408400E+02   -0.28953E-07   -0.11048E-07   756   0.172E-03
 101 F= -.86566441E+02 E0= -.86563517E+02  d E =-.857421E-03
       N       E                     dE             d eps       ncg     rms          rms(c)
DAV:   1    -0.865666000311E+02   -0.15922E-03   -0.24225E-03  1440   0.230E-01    0.209E-02
DAV:   2    -0.865665977156E+02    0.23155E-05   -0.40887E-05   744   0.326E-02    0.110E-02
DAV:   3    -0.865665965540E+02    0.11616E-05   -0.48374E-06   720   0.114E-02    0.410E-03
DAV:   4    -0.865665964057E+02    0.14835E-06   -0.88287E-07   720   0.521E-03    0.723E-04
DAV:   5    -0.865665964059E+02   -0.23351E-09   -0.13365E-07   720   0.192E-03    0.397E-04
DAV:   6    -0.865665963999E+02    0.60002E-08   -0.25830E-08   720   0.914E-04
 102 F= -.86566596E+02 E0= -.86563673E+02  d E =-.155560E-03
       N       E                     dE             d eps       ncg     rms          rms(c)
DAV:   1    -0.865670284469E+02   -0.43204E-03   -0.21793E-02  1440   0.690E-01    0.626E-02
DAV:   2    -0.865670098112E+02    0.18636E-04   -0.38921E-04  1920   0.977E-02    0.331E-02
DAV:   3    -0.865669976393E+02    0.12172E-04   -0.21590E-05  1140   0.235E-02    0.129E-02
DAV:   4    -0.865669964362E+02    0.12031E-05   -0.71901E-06   804   0.138E-02    0.218E-03
DAV:   5    -0.865669964613E+02   -0.25056E-07   -0.76770E-07   768   0.468E-03    0.112E-03
DAV:   6    -0.865669964570E+02    0.42246E-08   -0.13983E-07   756   0.204E-03
 103 F= -.86566996E+02 E0= -.86564076E+02  d E =-.555617E-03
       N       E                     dE             d eps       ncg     rms          rms(c)
DAV:   1    -0.865676466744E+02   -0.65021E-03   -0.86960E-02  1440   0.138E+00    0.125E-01
DAV:   2    -0.865675733873E+02    0.73287E-04   -0.15443E-03  1908   0.195E-01    0.661E-02
DAV:   3    -0.865675249133E+02    0.48474E-04   -0.86613E-05  1392   0.470E-02    0.255E-02
DAV:   4    -0.865675204622E+02    0.44510E-05   -0.27884E-05  1140   0.273E-02    0.436E-03
DAV:   5    -0.865675206849E+02   -0.22267E-06   -0.30178E-06   912   0.927E-03    0.226E-03
DAV:   6    -0.865675207202E+02   -0.35337E-07   -0.55900E-07   864   0.409E-03
 104 F= -.86567521E+02 E0= -.86564607E+02  d E =-.107988E-02
       N       E                     dE             d eps       ncg     rms          rms(c)
DAV:   1    -0.865679672616E+02   -0.44658E-03   -0.34608E-01  1440   0.275E+00    0.248E-01
DAV:   2    -0.865676874633E+02    0.27980E-03   -0.60779E-03  1920   0.388E-01    0.132E-01
DAV:   3    -0.865674971335E+02    0.19033E-03   -0.36412E-04  1848   0.940E-02    0.499E-02
DAV:   4    -0.865674791071E+02    0.18026E-04   -0.84301E-05  1404   0.464E-02    0.885E-03
DAV:   5    -0.865674802365E+02   -0.11294E-05   -0.10949E-05  1152   0.174E-02    0.455E-03
DAV:   6    -0.865674804975E+02   -0.26102E-06   -0.21482E-06   972   0.797E-03
 105 F= -.86567480E+02 E0= -.86564583E+02  d E =-.103966E-02
       N       E                     dE             d eps       ncg     rms          rms(c)
DAV:   1    -0.865678111215E+02   -0.33089E-03   -0.97481E-02  1440   0.146E+00    0.132E-01
DAV:   2    -0.865677366787E+02    0.74443E-04   -0.17416E-03  1908   0.206E-01    0.699E-02
DAV:   3    -0.865676831106E+02    0.53568E-04   -0.90235E-05  1404   0.482E-02    0.272E-02
DAV:   4    -0.865676786377E+02    0.44729E-05   -0.31405E-05   900   0.287E-02    0.459E-03
DAV:   5    -0.865676791075E+02   -0.46981E-06   -0.33714E-06   768   0.981E-03    0.231E-03
DAV:   6    -0.865676792689E+02   -0.16144E-06   -0.60886E-07   756   0.420E-03
 106 F= -.86567679E+02 E0= -.86564773E+02  d E =-.123843E-02
       N       E                     dE             d eps       ncg     rms          rms(c)
DAV:   1    -0.865679454095E+02   -0.26630E-03   -0.13906E-02  1440   0.500E-01    0.266E-02
DAV:   2    -0.865679652284E+02   -0.19819E-04   -0.26694E-04  1920   0.633E-02    0.169E-02
DAV:   3    -0.865679620955E+02    0.31330E-05   -0.49397E-06   924   0.116E-02    0.651E-03
DAV:   4    -0.865679622669E+02   -0.17143E-06   -0.25662E-06   792   0.758E-03    0.144E-03
DAV:   5    -0.865679623381E+02   -0.71240E-07   -0.32808E-07   768   0.284E-03    0.621E-04
DAV:   6    -0.865679623851E+02   -0.46922E-07   -0.38754E-08   720   0.105E-03
 107 F= -.86567962E+02 E0= -.86565051E+02  d E =-.283116E-03
       N       E                     dE             d eps       ncg     rms          rms(c)
DAV:   1    -0.865680432436E+02   -0.80905E-04   -0.14557E-02  1440   0.511E-01    0.272E-02
DAV:   2    -0.865680640246E+02   -0.20781E-04   -0.28025E-04  1920   0.649E-02    0.172E-02
DAV:   3    -0.865680606986E+02    0.33260E-05   -0.51719E-06   936   0.120E-02    0.666E-03
DAV:   4    -0.865680608800E+02   -0.18148E-06   -0.27651E-06   864   0.785E-03    0.147E-03
DAV:   5    -0.865680609503E+02   -0.70230E-07   -0.34895E-07   816   0.292E-03    0.637E-04
DAV:   6    -0.865680610004E+02   -0.50093E-07   -0.41095E-08   756   0.107E-03
 108 F= -.86568061E+02 E0= -.86565144E+02  d E =-.381731E-03
       N       E                     dE             d eps       ncg     rms          rms(c)
DAV:   1    -0.865683280097E+02   -0.26706E-03   -0.93467E-03  1440   0.404E-01    0.264E-02
DAV:   2    -0.865683342638E+02   -0.62540E-05   -0.14561E-04  1632   0.501E-02    0.138E-02
DAV:   3    -0.865683334065E+02    0.85729E-06   -0.11832E-05   984   0.158E-02    0.522E-03
DAV:   4    -0.865683331881E+02    0.21843E-06   -0.14465E-06   804   0.660E-03    0.289E-03
DAV:   5    -0.865683332182E+02   -0.30165E-07   -0.60163E-07   780   0.423E-03    0.762E-04
DAV:   6    -0.865683332218E+02   -0.36323E-08   -0.11267E-07   756   0.170E-03
 109 F= -.86568333E+02 E0= -.86565406E+02  d E =-.272221E-03
       N       E                     dE             d eps       ncg     rms          rms(c)
DAV:   1    -0.865685567801E+02   -0.22356E-03   -0.47070E-02  1440   0.906E-01    0.591E-02
DAV:   2    -0.865685894230E+02   -0.32643E-04   -0.74478E-04  1920   0.112E-01    0.309E-02
DAV:   3    -0.865685839846E+02    0.54384E-05   -0.48953E-05  1116   0.323E-02    0.120E-02
DAV:   4    -0.865685827564E+02    0.12282E-05   -0.72437E-06  1092   0.149E-02    0.658E-03
DAV:   5    -0.865685828708E+02   -0.11440E-06   -0.28160E-06   960   0.910E-03    0.156E-03
DAV:   6    -0.865685828946E+02   -0.23837E-07   -0.49549E-07   876   0.356E-03
 110 F= -.86568583E+02 E0= -.86565634E+02  d E =-.521894E-03
       N       E                     dE             d eps       ncg     rms          rms(c)
DAV:   1    -0.865687536283E+02   -0.17076E-03   -0.27081E-02  1440   0.691E-01    0.466E-02
DAV:   2    -0.865687614437E+02   -0.78154E-05   -0.51248E-04  1920   0.977E-02    0.231E-02
DAV:   3    -0.865687511277E+02    0.10316E-04   -0.19199E-05  1032   0.230E-02    0.108E-02
DAV:   4    -0.865687487089E+02    0.24188E-05   -0.86296E-06   936   0.149E-02    0.228E-03
DAV:   5    -0.865687486097E+02    0.99221E-07   -0.12709E-06   912   0.583E-03    0.107E-03
DAV:   6    -0.865687485689E+02    0.40824E-07   -0.17519E-07   840   0.199E-03
 111 F= -.86568749E+02 E0= -.86565796E+02  d E =-.165674E-03
       N       E                     dE             d eps       ncg     rms          rms(c)
DAV:   1    -0.865687597679E+02   -0.11158E-04   -0.29772E-03  1488   0.229E-01    0.154E-02
DAV:   2    -0.865687603289E+02   -0.56099E-06   -0.55698E-05  1356   0.324E-02    0.766E-03
DAV:   3    -0.865687590795E+02    0.12494E-05   -0.31264E-06   924   0.902E-03    0.347E-03
DAV:   4    -0.865687587296E+02    0.34986E-06   -0.10039E-06   792   0.489E-03    0.762E-04
DAV:   5    -0.865687586923E+02    0.37345E-07   -0.13733E-07   792   0.186E-03    0.359E-04
DAV:   6    -0.865687586758E+02    0.16473E-07   -0.24193E-08   792   0.728E-04
 112 F= -.86568759E+02 E0= -.86565805E+02  d E =-.175781E-03
       N       E                     dE             d eps       ncg     rms          rms(c)
DAV:   1    -0.865688928616E+02   -0.13417E-03   -0.33968E-02  1440   0.751E-01    0.535E-02
DAV:   2    -0.865689047357E+02   -0.11874E-04   -0.67190E-04  1920   0.108E-01    0.249E-02
DAV:   3    -0.865688920266E+02    0.12709E-04   -0.28180E-05  1140   0.289E-02    0.112E-02
DAV:   4    -0.865688896830E+02    0.23435E-05   -0.10850E-05  1008   0.167E-02    0.246E-03
DAV:   5    -0.865688896851E+02   -0.20641E-08   -0.13092E-06   984   0.605E-03    0.128E-03
DAV:   6    -0.865688896248E+02    0.60341E-07   -0.21595E-07   936   0.230E-03
 113 F= -.86568890E+02 E0= -.86565939E+02  d E =-.130949E-03
       N       E                     dE             d eps       ncg     rms          rms(c)
DAV:   1    -0.865688956208E+02   -0.59356E-05   -0.21459E-03  1536   0.189E-01    0.135E-02
DAV:   2    -0.865688962371E+02   -0.61635E-06   -0.42313E-05  1128   0.272E-02    0.627E-03
DAV:   3    -0.865688953959E+02    0.84116E-06   -0.25814E-06   852   0.842E-03    0.274E-03
DAV:   4    -0.865688952198E+02    0.17614E-06   -0.72627E-07   828   0.422E-03    0.635E-04
DAV:   5    -0.865688952116E+02    0.81750E-08   -0.91111E-08   828   0.154E-03    0.324E-04
DAV:   6    -0.865688951992E+02    0.12476E-07   -0.18060E-08   804   0.647E-04
 114 F= -.86568895E+02 E0= -.86565945E+02  d E =-.136523E-03
       N       E                     dE             d eps       ncg     rms          rms(c)
DAV:   1    -0.865690267433E+02   -0.13153E-03   -0.29446E-02  1440   0.677E-01    0.387E-02
DAV:   2    -0.865690569306E+02   -0.30187E-04   -0.48219E-04  1908   0.836E-02    0.190E-02
DAV:   3    -0.865690515515E+02    0.53791E-05   -0.10758E-05   888   0.167E-02    0.762E-03
DAV:   4    -0.865690512916E+02    0.25987E-06   -0.47548E-06   720   0.118E-02    0.200E-03
DAV:   5    -0.865690514134E+02   -0.12184E-06   -0.70405E-07   720   0.413E-03    0.115E-03
DAV:   6    -0.865690514248E+02   -0.11314E-07   -0.90559E-08   720   0.150E-03
 115 F= -.86569051E+02 E0= -.86566107E+02  d E =-.156226E-03
       N       E                     dE             d eps       ncg     rms          rms(c)
DAV:   1    -0.865691102462E+02   -0.58833E-04   -0.26522E-01  1440   0.203E+00    0.116E-01
DAV:   2    -0.865693788851E+02   -0.26864E-03   -0.43415E-03  1908   0.251E-01    0.569E-02
DAV:   3    -0.865693306755E+02    0.48210E-04   -0.93962E-05  1308   0.498E-02    0.231E-02
DAV:   4    -0.865693274087E+02    0.32667E-05   -0.44381E-05  1188   0.359E-02    0.587E-03
DAV:   5    -0.865693282194E+02   -0.81071E-06   -0.64659E-06   912   0.125E-02    0.348E-03
DAV:   6    -0.865693282112E+02    0.81980E-08   -0.80713E-07   864   0.448E-03
 116 F= -.86569328E+02 E0= -.86566403E+02  d E =-.433012E-03
       N       E                     dE             d eps       ncg     rms          rms(c)
DAV:   1    -0.865693203042E+02    0.79152E-05   -0.46516E-02  1440   0.852E-01    0.486E-02
DAV:   2    -0.865693678686E+02   -0.47564E-04   -0.76482E-04  1908   0.105E-01    0.239E-02
DAV:   3    -0.865693592631E+02    0.86055E-05   -0.17181E-05  1080   0.211E-02    0.958E-03
DAV:   4    -0.865693587452E+02    0.51792E-06   -0.76002E-06   828   0.149E-02    0.252E-03
DAV:   5    -0.865693589190E+02   -0.17377E-06   -0.11323E-06   816   0.524E-03    0.146E-03
DAV:   6    -0.865693589287E+02   -0.96898E-08   -0.14678E-07   792   0.190E-03
 117 F= -.86569359E+02 E0= -.86566443E+02  d E =-.463729E-03
       N       E                     dE             d eps       ncg     rms          rms(c)
DAV:   1    -0.865694462592E+02   -0.87340E-04   -0.26839E-02  1440   0.632E-01    0.329E-02
DAV:   2    -0.865694747891E+02   -0.28530E-04   -0.35211E-04  1908   0.716E-02    0.168E-02
DAV:   3    -0.865694734399E+02    0.13492E-05   -0.54694E-06   852   0.113E-02    0.749E-03
DAV:   4    -0.865694733983E+02    0.41556E-07   -0.19455E-06   756   0.672E-03    0.190E-03
DAV:   5    -0.865694734176E+02   -0.19302E-07   -0.34386E-07   756   0.259E-03    0.858E-04
DAV:   6    -0.865694734002E+02    0.17459E-07   -0.35409E-08   756   0.993E-04
 118 F= -.86569473E+02 E0= -.86566555E+02  d E =-.114472E-03
       N       E                     dE             d eps       ncg     rms          rms(c)
DAV:   1    -0.865694819260E+02   -0.85084E-05   -0.64899E-03  1440   0.311E-01    0.162E-02
DAV:   2    -0.865694885844E+02   -0.66584E-05   -0.83756E-05  1044   0.353E-02    0.817E-03
DAV:   3    -0.865694883632E+02    0.22124E-06   -0.28255E-06   768   0.738E-03    0.354E-03
DAV:   4    -0.865694883079E+02    0.55314E-07   -0.45205E-07   756   0.336E-03    0.917E-04
DAV:   5    -0.865694882991E+02    0.87271E-08   -0.88611E-08   756   0.132E-03    0.351E-04
DAV:   6    -0.865694882928E+02    0.62969E-08   -0.13478E-08   732   0.568E-04
 119 F= -.86569488E+02 E0= -.86566569E+02  d E =-.129364E-03
       N       E                     dE             d eps       ncg     rms          rms(c)
DAV:   1    -0.865695766160E+02   -0.88317E-04   -0.13186E-02  1440   0.466E-01    0.325E-02
DAV:   2    -0.865695843646E+02   -0.77486E-05   -0.24243E-04  1716   0.633E-02    0.151E-02
DAV:   3    -0.865695807828E+02    0.35817E-05   -0.59298E-06   864   0.131E-02    0.699E-03
DAV:   4    -0.865695801842E+02    0.59865E-06   -0.42076E-06   720   0.108E-02    0.139E-03
DAV:   5    -0.865695801538E+02    0.30389E-07   -0.54497E-07   720   0.373E-03    0.733E-04
DAV:   6    -0.865695801371E+02    0.16663E-07   -0.53003E-08   720   0.119E-03
 120 F= -.86569580E+02 E0= -.86566652E+02  d E =-.918443E-04
       N       E                     dE             d eps       ncg     rms          rms(c)
DAV:   1    -0.865697204442E+02   -0.14029E-03   -0.11872E-01  1440   0.140E+00    0.974E-02
DAV:   2    -0.865697885523E+02   -0.68108E-04   -0.21709E-03  1920   0.189E-01    0.452E-02
DAV:   3    -0.865697567390E+02    0.31813E-04   -0.52884E-05  1200   0.392E-02    0.208E-02
DAV:   4    -0.865697520319E+02    0.47071E-05   -0.37176E-05   972   0.320E-02    0.414E-03
DAV:   5    -0.865697520591E+02   -0.27162E-07   -0.47651E-06   876   0.110E-02    0.220E-03
DAV:   6    -0.865697520033E+02    0.55836E-07   -0.47061E-07   792   0.357E-03
 121 F= -.86569752E+02 E0= -.86566802E+02  d E =-.263710E-03
       N       E                     dE             d eps       ncg     rms          rms(c)
DAV:   1    -0.865695046675E+02    0.24739E-03   -0.47525E-01  1440   0.279E+00    0.194E-01
DAV:   2    -0.865697739831E+02   -0.26932E-03   -0.86227E-03  1920   0.377E-01    0.904E-02
DAV:   3    -0.865696500075E+02    0.12398E-03   -0.22856E-04  1764   0.784E-02    0.405E-02
DAV:   4    -0.865696308691E+02    0.19138E-04   -0.10861E-04  1344   0.562E-02    0.792E-03
DAV:   5    -0.865696317825E+02   -0.91335E-06   -0.17845E-05  1116   0.209E-02    0.429E-03
DAV:   6    -0.865696316049E+02    0.17759E-06   -0.20590E-06   936   0.736E-03
 122 F= -.86569632E+02 E0= -.86566663E+02  d E =-.143312E-03
       N       E                     dE             d eps       ncg     rms          rms(c)
DAV:   1    -0.865697075786E+02   -0.75796E-04   -0.25350E-01  1440   0.204E+00    0.143E-01
DAV:   2    -0.865698589935E+02   -0.15141E-03   -0.47185E-03  1908   0.278E-01    0.659E-02
DAV:   3    -0.865697898913E+02    0.69102E-04   -0.10927E-04  1308   0.571E-02    0.312E-02
DAV:   4    -0.865697800914E+02    0.97999E-05   -0.82667E-05  1164   0.480E-02    0.619E-03
DAV:   5    -0.865697806888E+02   -0.59735E-06   -0.11183E-05   828   0.169E-02    0.316E-03
DAV:   6    -0.865697807731E+02   -0.84334E-07   -0.10306E-06   792   0.523E-03
 123 F= -.86569781E+02 E0= -.86566823E+02  d E =-.292480E-03
       N       E                     dE             d eps       ncg     rms          rms(c)
DAV:   1    -0.865698739747E+02   -0.93286E-04   -0.19763E-02  1440   0.574E-01    0.407E-02
DAV:   2    -0.865698880249E+02   -0.14050E-04   -0.36653E-04  1884   0.752E-02    0.215E-02
DAV:   3    -0.865698802347E+02    0.77902E-05   -0.91721E-06   852   0.178E-02    0.923E-03
DAV:   4    -0.865698793459E+02    0.88884E-06   -0.78661E-06   732   0.141E-02    0.210E-03
DAV:   5    -0.865698792695E+02    0.76312E-07   -0.89937E-07   720   0.484E-03    0.108E-03
DAV:   6    -0.865698792935E+02   -0.23948E-07   -0.10171E-07   720   0.164E-03
 124 F= -.86569879E+02 E0= -.86566919E+02  d E =-.985204E-04
       N       E                     dE             d eps       ncg     rms          rms(c)
DAV:   1    -0.865699046305E+02   -0.25361E-04   -0.13136E-02  1440   0.468E-01    0.334E-02
DAV:   2    -0.865699138041E+02   -0.91736E-05   -0.24351E-04  1908   0.613E-02    0.176E-02
DAV:   3    -0.865699085821E+02    0.52220E-05   -0.62225E-06   936   0.146E-02    0.749E-03
DAV:   4    -0.865699080180E+02    0.56415E-06   -0.52617E-06   756   0.115E-02    0.171E-03
DAV:   5    -0.865699079579E+02    0.60114E-07   -0.60381E-07   756   0.395E-03    0.866E-04
DAV:   6    -0.865699079789E+02   -0.21060E-07   -0.67633E-08   744   0.135E-03
 125 F= -.86569908E+02 E0= -.86566946E+02  d E =-.127206E-03
       N       E                     dE             d eps       ncg     rms          rms(c)
DAV:   1    -0.865700049777E+02   -0.97020E-04   -0.20424E-02  1440   0.597E-01    0.402E-02
DAV:   2    -0.865700192279E+02   -0.14250E-04   -0.35731E-04  1920   0.776E-02    0.234E-02
DAV:   3    -0.865700093118E+02    0.99161E-05   -0.17303E-05  1020   0.252E-02    0.685E-03
DAV:   4    -0.865700093226E+02   -0.10800E-07   -0.66426E-06   864   0.123E-02    0.258E-03
DAV:   5    -0.865700092203E+02    0.10224E-06   -0.63944E-07   852   0.440E-03    0.106E-03
DAV:   6    -0.865700092197E+02    0.57821E-09   -0.89946E-08   768   0.164E-03
 126 F= -.86570009E+02 E0= -.86567050E+02  d E =-.101241E-03
       N       E                     dE             d eps       ncg     rms          rms(c)
DAV:   1    -0.865700648724E+02   -0.55652E-04   -0.51087E-02  1440   0.943E-01    0.634E-02
DAV:   2    -0.865700999868E+02   -0.35114E-04   -0.89298E-04  1920   0.123E-01    0.369E-02
DAV:   3    -0.865700751480E+02    0.24839E-04   -0.43358E-05  1260   0.398E-02    0.108E-02
DAV:   4    -0.865700752061E+02   -0.58097E-07   -0.16508E-05  1068   0.194E-02    0.406E-03
DAV:   5    -0.865700749780E+02    0.22804E-06   -0.15822E-06   960   0.691E-03    0.167E-03
DAV:   6    -0.865700749705E+02    0.74965E-08   -0.22388E-07   912   0.258E-03
 127 F= -.86570075E+02 E0= -.86567123E+02  d E =-.166992E-03
       N       E                     dE             d eps       ncg     rms          rms(c)
DAV:   1    -0.865701276773E+02   -0.52699E-04   -0.42924E-03  1452   0.278E-01    0.231E-02
DAV:   2    -0.865701282971E+02   -0.61973E-06   -0.63509E-05  1248   0.352E-02    0.126E-02
DAV:   3    -0.865701268216E+02    0.14755E-05   -0.36158E-06   804   0.957E-03    0.475E-03
DAV:   4    -0.865701265813E+02    0.24032E-06   -0.88240E-07   756   0.478E-03    0.861E-04
DAV:   5    -0.865701265412E+02    0.40069E-07   -0.10931E-07   732   0.171E-03    0.317E-04
DAV:   6    -0.865701265302E+02    0.11037E-07   -0.19029E-08   756   0.690E-04
 128 F= -.86570127E+02 E0= -.86567178E+02  d E =-.515596E-04
