 vasp.5.2.11 25Nov10 complex 
 executed on             LinuxIFC date 2018.12.16  15:54:44
 running on   12 nodes
 distr:  one band on    1 nodes,   12 groups


--------------------------------------------------------------------------------------------------------


 INCAR:
 POTCAR:   PAW_PBE O 08Apr2002                    
 POTCAR:   PAW_PBE H 15Jun2001                    
 POTCAR:   PAW_PBE O 08Apr2002                    
   VRHFIN =O: s2p4                                                              
   LEXCH  = PE                                                                  
   EATOM  =   432.3788 eV,   31.7789 Ry                                         
                                                                                
   TITEL  = PAW_PBE O 08Apr2002                                                 
   LULTRA =        F    use ultrasoft PP ?                                      
   IUNSCR =        0    unscreen: 0-lin 1-nonlin 2-no                           
   RPACOR =     .000    partial core radius                                     
   POMASS =   16.000; ZVAL   =    6.000    mass and valenz                      
   RCORE  =    1.520    outmost cutoff radius                                   
   RWIGS  =    1.550; RWIGS  =     .820    wigner-seitz radius (au A)           
   ENMAX  =  400.000; ENMIN  =  300.000 eV                                      
   ICORE  =        2    local potential                                         
   LCOR   =        T    correct aug charges                                     
   LPAW   =        T    paw PP                                                  
   EAUG   =  605.392                                                            
   DEXC   =     .000                                                            
   RMAX   =    2.264    core radius for proj-oper                               
   RAUG   =    1.300    factor for augmentation sphere                          
   RDEP   =    1.550    radius for radial grids                                 
   QCUT   =   -5.520; QGAM   =   11.041    optimization parameters              
                                                                                
   Description                                                                  
     l     E      TYP  RCUT    TYP  RCUT                                        
     0   .000     23  1.200                                                     
     0  -.700     23  1.200                                                     
     1   .000     23  1.520                                                     
     1   .600     23  1.520                                                     
     2   .000      7  1.500                                                     
  local pseudopotential read in
  atomic valenz-charges read in
  non local Contribution for L=           0  read in
    real space projection operators read in
  non local Contribution for L=           0  read in
    real space projection operators read in
  non local Contribution for L=           1  read in
    real space projection operators read in
  non local Contribution for L=           1  read in
    real space projection operators read in
    PAW grid and wavefunctions read in
 
   number of l-projection  operators is LMAX  =           4
   number of lm-projection operators is LMMAX =           8
 
 POTCAR:   PAW_PBE H 15Jun2001                    
   VRHFIN =H: ultrasoft test                                                    
   LEXCH  = PE                                                                  
   EATOM  =    12.4884 eV,     .9179 Ry                                         
                                                                                
   TITEL  = PAW_PBE H 15Jun2001                                                 
   LULTRA =        F    use ultrasoft PP ?                                      
   IUNSCR =        0    unscreen: 0-lin 1-nonlin 2-no                           
   RPACOR =     .000    partial core radius                                     
   POMASS =    1.000; ZVAL   =    1.000    mass and valenz                      
   RCORE  =    1.100    outmost cutoff radius                                   
   RWIGS  =     .700; RWIGS  =     .370    wigner-seitz radius (au A)           
   ENMAX  =  250.000; ENMIN  =  200.000 eV                                      
   RCLOC  =     .701    cutoff for local pot                                    
   LCOR   =        T    correct aug charges                                     
   LPAW   =        T    paw PP                                                  
   EAUG   =  400.000                                                            
   RMAX   =    2.174    core radius for proj-oper                               
   RAUG   =    1.200    factor for augmentation sphere                          
   RDEP   =    1.112    radius for radial grids                                 
   QCUT   =   -5.749; QGAM   =   11.498    optimization parameters              
                                                                                
   Description                                                                  
     l     E      TYP  RCUT    TYP  RCUT                                        
     0   .000     23  1.100                                                     
     0   .500     23  1.100                                                     
     1  -.300     23  1.100                                                     
  local pseudopotential read in
  atomic valenz-charges read in
  non local Contribution for L=           0  read in
    real space projection operators read in
  non local Contribution for L=           0  read in
    real space projection operators read in
  non local Contribution for L=           1  read in
    real space projection operators read in
    PAW grid and wavefunctions read in
 
   number of l-projection  operators is LMAX  =           3
   number of lm-projection operators is LMMAX =           5
 
 PAW_PBE O 08Apr2002                    :
 energy of atom  1       EATOM= -432.3788
 kinetic energy error for atom=    0.0224 (will be added to EATOM!!)
 PAW_PBE H 15Jun2001                    :
 energy of atom  2       EATOM=  -12.4884
 kinetic energy error for atom=    0.0020 (will be added to EATOM!!)
 
 
 POSCAR: h2o                                     
  positions in direct lattice
  No initial velocities read in
 exchange correlation table for  LEXCH =        8
   RHO(1)=    0.500       N(1)  =     2000
   RHO(2)=  100.500       N(2)  =     4000

 VTST: version 3.1, (03/28/14)

 CHAIN: initializing optimizer
 
 OPT: Using VASP Conjugate-Gradient optimizer
 CHAIN: Read ICHAIN            0
 
 POSCAR: h2o                                     
  positions in direct lattice
  No initial velocities read in
 


--------------------------------------------------------------------------------------------------------


 ion  position               nearest neighbor table
   1  0.500  0.500  0.500-   3 1.11   2 1.11
   2  0.489  0.610  0.494-   1 1.11
   3  0.597  0.507  0.554-   1 1.11
 
  LATTYP: Found a simple cubic cell.
 ALAT       =    10.0000000000
  
  Lattice vectors:
  
 A1 = (  10.0000000000,   0.0000000000,   0.0000000000)
 A2 = (   0.0000000000,  10.0000000000,   0.0000000000)
 A3 = (   0.0000000000,   0.0000000000,  10.0000000000)
 Subroutine PRICEL returns:
 Original cell was already a primitive cell.
 

Analysis of symmetry for initial positions (statically):

 Routine SETGRP: Setting up the symmetry group for a 
 simple cubic supercell.


 Subroutine GETGRP returns: Found  1 space group operations
 (whereof  1 operations were pure point group operations)
 out of a pool of 48 trial point group operations.


The static configuration has the point symmetry C_1 .

Analysis of symmetry for dynamics (positions and initial velocities):

 Subroutine DYNSYM returns: Found  1 space group operations
 (whereof  1 operations were pure point group operations)
 out of a pool of  1 trial space group operations
 (whereof  1 operations were pure point group operations)
 and found also     1 'primitive' translations


The dynamic configuration has the point symmetry C_1 .
 
 
 KPOINTS: K-Mesh Generated with KP-Resolved Value 

Automatic generation of k-mesh.
 
 Subroutine IBZKPT returns following result:
 ===========================================
 
 Found      1 irreducible k-points:
 
 Following reciprocal coordinates:
            Coordinates               Weight
  0.000000  0.000000  0.000000      1.000000
 
 Following cartesian coordinates:
            Coordinates               Weight
  0.000000  0.000000  0.000000      1.000000
 


--------------------------------------------------------------------------------------------------------




 Dimension of arrays:
   k-points           NKPTS =      1   k-points in BZ     NKDIM =      1   number of bands    NBANDS=     12
   number of dos      NEDOS =    301   number of ions     NIONS =      3
   non local maximal  LDIM  =      4   non local SUM 2l+1 LMDIM =      8
   total plane-waves  NPLWV = 175616
   max r-space proj   IRMAX =      1   max aug-charges    IRDMAX=   1030
   dimension x,y,z NGX =    56 NGY =   56 NGZ =   56
   dimension x,y,z NGXF=    80 NGYF=   80 NGZF=   80
   support grid    NGXF=    80 NGYF=   80 NGZF=   80
   ions per type =               1   2
 NGX,Y,Z   is equivalent  to a cutoff of   9.31,  9.31,  9.31 a.u.
 NGXF,Y,Z  is equivalent  to a cutoff of  13.30, 13.30, 13.30 a.u.


 I would recommend the setting:
   dimension x,y,z NGX =    55 NGY =   55 NGZ =   55
 SYSTEM =  unknown system                          
 POSCAR =  h2o                                     

 Startparameter for this run:
   NWRITE =      2    write-flag & timer
   PREC   = medium    normal or accurate (medium, high low for compatibility)
   ISTART =      0    job   : 0-new  1-cont  2-samecut
   ICHARG =      2    charge: 1-file 2-atom 10-const
   ISPIN  =      1    spin polarized calculation?
   LNONCOLLINEAR =      F non collinear calculations
   LSORBIT =      F    spin-orbit coupling
   INIWAV =      1    electr: 0-lowe 1-rand  2-diag
   LASPH  =      F    aspherical Exc in radial PAW
   METAGGA=      F    non-selfconsistent MetaGGA calc.

 Electronic Relaxation 1
   ENCUT  =  500.0 eV  36.75 Ry    6.06 a.u.  18.23 18.23 18.23*2*pi/ulx,y,z
   ENINI  =  500.0     initial cutoff
   ENAUG  =  605.4 eV  augmentation charge cutoff
   NELM   =     60;   NELMIN=  6; NELMDL= -5     # of ELM steps 
   EDIFF  = 0.1E-03   stopping-criterion for ELM
   LREAL  =      F    real-space projection
   LCOMPAT=      F    compatible to vasp.4.4
   GGA_COMPAT  = T    GGA compatible to vasp.4.4-vasp.4.6
   LMAXPAW     = -100 max onsite density
   LMAXMIX     =    2 max onsite mixed and CHGCAR
   VOSKOWN=      0    Vosko Wilk Nusair interpolation
   ROPT   =    0.00000   0.00000
 Ionic relaxation
   EDIFFG = -.2E-01   stopping-criterion for IOM
   NSW    =    100    number of steps for IOM
   NBLOCK =      1;   KBLOCK =    100    inner block; outer block 
   IBRION =      2    ionic relax: 0-MD 1-quasi-New 2-CG
   NFREE  =      1    steps in history (QN), initial steepest desc. (CG)
   ISIF   =      3    stress and relaxation
   IWAVPR =     11    prediction:  0-non 1-charg 2-wave 3-comb
   ISYM   =      2    0-nonsym 1-usesym 2-fastsym
   LCORR  =      T    Harris-Foulkes like correction to forces

   POTIM  = 0.5000    time-step for ionic-motion
   TEIN   =    0.0    initial temperature
   TEBEG  =    0.0;   TEEND  =   0.0 temperature during run
   SMASS  =  -3.00    Nose mass-parameter (am)
   estimated Nose-frequenzy (Omega)   =  0.10E-29 period in steps =****** mass=  -0.229E-26a.u.
   NPACO  =    256;   APACO  = 16.0  distance and # of slots for P.C.
   PSTRESS=    0.0 pullay stress

  Mass of Ions in am
   POMASS =  16.00  1.00
  Ionic Valenz
   ZVAL   =   6.00  1.00
  Atomic Wigner-Seitz radii
   RWIGS  =  -1.00 -1.00
  virtual crystal weights 
   VCA    =   1.00  1.00
   NELECT =       8.0000    total number of electrons
   NUPDOWN=      -1.0000    fix difference up-down

 DOS related values:
   EMIN   =  10.00;   EMAX   =-10.00  energy-range for DOS
   EFERMI =   0.00
   ISMEAR =     0;   SIGMA  =   0.10  broadening in eV -4-tet -1-fermi 0-gaus

 Electronic relaxation 2 (details)
   IALGO  =     38    algorithm
   LDIAG  =      T    sub-space diagonalisation (order eigenvalues)
   LSUBROT=      T    optimize rotation matrix (better conditioning)
   TURBO    =      0    0=normal 1=particle mesh
   IRESTART =      0    0=no restart 2=restart with 2 vectors
   NREBOOT  =      0    no. of reboots
   NMIN     =      0    reboot dimension
   EREF     =   0.00    reference energy to select bands
   IMIX   =      4    mixing-type and parameters
     AMIX     =   0.40;   BMIX     =  1.00
     AMIX_MAG =   1.60;   BMIX_MAG =  1.00
     AMIN     =   0.10
     WC   =   100.;   INIMIX=   1;  MIXPRE=   1

 Intra band minimization:
   WEIMIN = 0.0010     energy-eigenvalue tresh-hold
   EBREAK =  0.31E-05  absolut break condition
   DEPER  =   0.30     relativ break condition  

   TIME   =   0.40     timestep for ELM

  volume/ion in A,a.u.               =     333.33      2249.44
  Fermi-wavevector in a.u.,A,eV,Ry     =   0.327420  0.618734  1.458594  0.107204
  Thomas-Fermi vector in A             =   1.220131
 
 Write flags
   LWAVE  =      T    write WAVECAR
   LCHARG =      T    write CHGCAR
   LVTOT  =      F    write LOCPOT, total local potential
   LVHAR  =      F    write LOCPOT, Hartree potential only
   LELF   =      F    write electronic localiz. function (ELF)
   LORBIT =      0    0 simple, 1 ext, 2 COOP (PROOUT)


 Dipole corrections
   LMONO  =      F    monopole corrections only (constant potential shift)
   LDIPOL =      F    correct potential (dipole corrections)
   IDIPOL =      0    1-x, 2-y, 3-z, 4-all directions 
   EPSILON=  1.0000000 bulk dielectric constant

 Exchange correlation treatment:
   GGA     =    --    GGA type
   LEXCH   =     8    internal setting for exchange type
   VOSKOWN=      0    Vosko Wilk Nusair interpolation
   LHFCALC =     F    Hartree Fock is set to
   LHFONE  =     F    Hartree Fock one center treatment
   AEXX    =    0.0000 exact exchange contribution

 Linear response parameters
   LEPSILON=     F    determine dielectric tensor
   LRPA    =     F    only Hartree local field effects (RPA)
   LNABLA  =     F    use nabla operator in PAW spheres
   LVEL    =     F    velocity operator in full k-point grid
   LINTERFAST=   F  fast interpolation
   KINTER  =     0    interpolate to denser k-point grid
   CSHIFT  =0.1000    complex shift for real part using Kramers Kronig
   OMEGAMAX=  -1.0    maximum frequency
   RTIME   =    0.100 relaxation time in fs

 Orbital magnetization related:
   ORBITALMAG=     F  switch on orbital magnetization
   LCHIMAG   =     F  perturbation theory with respect to B field



--------------------------------------------------------------------------------------------------------


 conjugate gradient relaxation of ions
 charge density and potential will be updated during run
 non-spin polarized calculation
 Variant of blocked Davidson
 Davidson routine will perform the subspace rotation
 perform sub-space diagonalisation
    after iterative eigenvector-optimisation
 modified Broyden-mixing scheme, WC =      100.0
 initial mixing is a Kerker type mixing with AMIX =  0.4000 and BMIX =      1.0000
 Hartree-type preconditioning will be used
 using additional bands            8
 reciprocal scheme for non local part
 calculate Harris-corrections to forces 
   (improved forces if not selfconsistent)
 use gradient corrections 
 use of overlap-Matrix (Vanderbilt PP)
 Gauss-broadening in eV      SIGMA  =   0.10


--------------------------------------------------------------------------------------------------------


  energy-cutoff  :      500.00
  volume of cell :     1000.00
      direct lattice vectors                 reciprocal lattice vectors
    10.000000000  0.000000000  0.000000000     0.100000000  0.000000000  0.000000000
     0.000000000 10.000000000  0.000000000     0.000000000  0.100000000  0.000000000
     0.000000000  0.000000000 10.000000000     0.000000000  0.000000000  0.100000000

  length of vectors
    10.000000000 10.000000000 10.000000000     0.100000000  0.100000000  0.100000000


 
 k-points in units of 2pi/SCALE and weight: K-Mesh Generated with KP-Resolved Value 
   0.00000000  0.00000000  0.00000000       1.000
 
 k-points in reciprocal lattice and weights: K-Mesh Generated with KP-Resolved Value 
   0.00000000  0.00000000  0.00000000       1.000
 
 position of ions in fractional coordinates (direct lattice) 
   0.50000000  0.50000000  0.50000000
   0.48927000  0.61030000  0.49371999
   0.59650999  0.50682998  0.55440003
 
 position of ions in cartesian coordinates  (Angst):
   5.00000000  5.00000000  5.00000000
   4.89270002  6.10300004  4.93719995
   5.96509993  5.06829977  5.54400027
 


--------------------------------------------------------------------------------------------------------


 k-point  1 :  0.00000.00000.0000  plane waves:   25413

 maximum and minimum number of plane-waves per node :     25413    25413

 maximum number of plane-waves:     25413
 maximum index in each direction: 
   IXMAX=   18   IYMAX=   18   IZMAX=   18
   IXMIN=  -18   IYMIN=  -18   IZMIN=  -18

 WARNING: aliasing errors must be expected set NGX to  74 to avoid them
 WARNING: aliasing errors must be expected set NGY to  74 to avoid them
 WARNING: aliasing errors must be expected set NGZ to  74 to avoid them
 aliasing errors are usually negligible using standard VASP settings
 and one can safely disregard these warnings

 serial   3D FFT for wavefunctions
 parallel 3D FFT for charge:
    minimum data exchange during FFTs selected (reduces bandwidth)


 total amount of memory used by VASP on root node    46883. kBytes
========================================================================

   base      :      30000. kBytes
   nonl-proj :       4473. kBytes
   fftplans  :       2366. kBytes
   grid      :       9628. kBytes
   one-center:          9. kBytes
   wavefun   :        407. kBytes
 
 Broyden mixing: mesh for mixing (old mesh)
   NGX = 37   NGY = 37   NGZ = 37
  (NGX  = 80   NGY  = 80   NGZ  = 80)
  gives a total of  50653 points

 initial charge density was supplied:
 charge density of overlapping atoms calculated
 number of electron       8.0000000 magnetization 
 keeping initial charge density in first step


--------------------------------------------------------------------------------------------------------


 Maximum index for augmentation-charges           57 (set IRDMAX)


--------------------------------------------------------------------------------------------------------


 First call to EWALD:  gamma=   0.177
 Maximum number of real-space cells 3x 3x 3
 Maximum number of reciprocal cells 3x 3x 3

    FEWALD:  cpu time    0.00: real time    0.00


----------------------------------------- Iteration    1(   1)  ---------------------------------------


    POTLOK:  cpu time    0.06: real time    0.06
    SETDIJ:  cpu time    0.00: real time    0.00
     EDDAV:  cpu time    0.26: real time    0.28
       DOS:  cpu time    0.00: real time    0.00
    --------------------------------------------
      LOOP:  cpu time    0.33: real time    0.35

 eigenvalue-minimisations  :    36
 total energy-change (2. order) : 0.4610633E+02  (-0.2203502E+03)
 number of electron       8.0000000 magnetization 
 augmentation part        8.0000000 magnetization 

 Free energy of the ion-electron system (eV)
  ---------------------------------------------------
  alpha Z        PSCENC =         0.22422278
  Ewald energy   TEWEN  =        34.41234645
  -1/2 Hartree   DENC   =      -405.15375360
  -exchange  EXHF       =         0.00000000
  -V(xc)+E(xc)   XCENC  =        31.75156159
  PAW double counting   =       247.56105404     -249.42875511
  entropy T*S    EENTRO =        -0.00000692
  eigenvalues    EBANDS =       -70.58963414
  atomic energy  EATOM  =       457.32929435
  ---------------------------------------------------
  free energy    TOTEN  =        46.10632943 eV

  energy without entropy =       46.10633635  energy(sigma->0) =       46.10633289


--------------------------------------------------------------------------------------------------------


 E-fermi :  -0.6846     XC(G=0):  -0.7305     alpha+bet : -0.1301


 k-point   1 :       0.0000    0.0000    0.0000
  band No.  band energies     occupation 
      1     -24.0072      2.00000
      2      -6.2542      2.00000
      3      -4.0373      2.00000
      4      -0.9961      1.99999
      5      -0.3732      0.00001
      6       0.7590      0.00000
      7       1.3105      0.00000
      8       1.5643      0.00000
      9       1.8922      0.00000
     10       2.2658      0.00000
     11       2.7962      0.00000
     12       3.2801      0.00000


----------------------------------------- Iteration    1(   2)  ---------------------------------------


     EDDAV:  cpu time    0.35: real time    0.35
       DOS:  cpu time    0.00: real time    0.00
    --------------------------------------------
      LOOP:  cpu time    0.35: real time    0.36

 eigenvalue-minimisations  :    48
 total energy-change (2. order) :-0.5862759E+02  (-0.5862751E+02)
 number of electron       8.0000000 magnetization 
 augmentation part        8.0000000 magnetization 

 Free energy of the ion-electron system (eV)
  ---------------------------------------------------
  alpha Z        PSCENC =         0.22422278
  Ewald energy   TEWEN  =        34.41234645
  -1/2 Hartree   DENC   =      -405.15375360
  -exchange  EXHF       =         0.00000000
  -V(xc)+E(xc)   XCENC  =        31.75156159
  PAW double counting   =       247.56105404     -249.42875511
  entropy T*S    EENTRO =        -0.00000000
  eigenvalues    EBANDS =      -129.21723186
  atomic energy  EATOM  =       457.32929435
  ---------------------------------------------------
  free energy    TOTEN  =       -12.52126137 eV

  energy without entropy =      -12.52126137  energy(sigma->0) =      -12.52126137


--------------------------------------------------------------------------------------------------------


 E-fermi :  -9.7643     XC(G=0):  -0.7305     alpha+bet : -0.1301


 k-point   1 :       0.0000    0.0000    0.0000
  band No.  band energies     occupation 
      1     -27.6573      2.00000
      2     -14.0178      2.00000
      3     -12.6376      2.00000
      4     -10.2960      2.00000
      5      -2.3277      0.00000
      6      -0.6940      0.00000
      7       0.0931      0.00000
      8       0.8160      0.00000
      9       0.8774      0.00000
     10       1.1222      0.00000
     11       1.2020      0.00000
     12       1.4947      0.00000


----------------------------------------- Iteration    1(   3)  ---------------------------------------


     EDDAV:  cpu time    0.20: real time    0.20
       DOS:  cpu time    0.00: real time    0.00
    --------------------------------------------
      LOOP:  cpu time    0.20: real time    0.22

 eigenvalue-minimisations  :    24
 total energy-change (2. order) :-0.2574310E+01  (-0.2574310E+01)
 number of electron       8.0000000 magnetization 
 augmentation part        8.0000000 magnetization 

 Free energy of the ion-electron system (eV)
  ---------------------------------------------------
  alpha Z        PSCENC =         0.22422278
  Ewald energy   TEWEN  =        34.41234645
  -1/2 Hartree   DENC   =      -405.15375360
  -exchange  EXHF       =         0.00000000
  -V(xc)+E(xc)   XCENC  =        31.75156159
  PAW double counting   =       247.56105404     -249.42875511
  entropy T*S    EENTRO =        -0.00000000
  eigenvalues    EBANDS =      -131.79154196
  atomic energy  EATOM  =       457.32929435
  ---------------------------------------------------
  free energy    TOTEN  =       -15.09557147 eV

  energy without entropy =      -15.09557147  energy(sigma->0) =      -15.09557147


--------------------------------------------------------------------------------------------------------


 E-fermi : -10.3188     XC(G=0):  -0.7305     alpha+bet : -0.1301


 k-point   1 :       0.0000    0.0000    0.0000
  band No.  band energies     occupation 
      1     -27.6665      2.00000
      2     -14.3318      2.00000
      3     -13.0853      2.00000
      4     -10.8121      2.00000
      5      -2.3903      0.00000
      6      -0.7923      0.00000
      7       0.0789      0.00000
      8       0.7996      0.00000
      9       0.8641      0.00000
     10       1.1032      0.00000
     11       1.1920      0.00000
     12       1.4618      0.00000


----------------------------------------- Iteration    1(   4)  ---------------------------------------


     EDDAV:  cpu time    0.20: real time    0.20
       DOS:  cpu time    0.00: real time    0.00
    --------------------------------------------
      LOOP:  cpu time    0.20: real time    0.21

 eigenvalue-minimisations  :    24
 total energy-change (2. order) :-0.1981975E-01  (-0.1981975E-01)
 number of electron       8.0000000 magnetization 
 augmentation part        8.0000000 magnetization 

 Free energy of the ion-electron system (eV)
  ---------------------------------------------------
  alpha Z        PSCENC =         0.22422278
  Ewald energy   TEWEN  =        34.41234645
  -1/2 Hartree   DENC   =      -405.15375360
  -exchange  EXHF       =         0.00000000
  -V(xc)+E(xc)   XCENC  =        31.75156159
  PAW double counting   =       247.56105404     -249.42875511
  entropy T*S    EENTRO =        -0.00000000
  eigenvalues    EBANDS =      -131.81136171
  atomic energy  EATOM  =       457.32929435
  ---------------------------------------------------
  free energy    TOTEN  =       -15.11539122 eV

  energy without entropy =      -15.11539122  energy(sigma->0) =      -15.11539122


--------------------------------------------------------------------------------------------------------


 E-fermi : -10.3197     XC(G=0):  -0.7305     alpha+bet : -0.1301


 k-point   1 :       0.0000    0.0000    0.0000
  band No.  band energies     occupation 
      1     -27.6666      2.00000
      2     -14.3333      2.00000
      3     -13.0881      2.00000
      4     -10.8177      2.00000
      5      -2.3916      0.00000
      6      -0.7964      0.00000
      7       0.0786      0.00000
      8       0.7991      0.00000
      9       0.8637      0.00000
     10       1.1027      0.00000
     11       1.1918      0.00000
     12       1.4603      0.00000


----------------------------------------- Iteration    1(   5)  ---------------------------------------


     EDDAV:  cpu time    0.27: real time    0.27
       DOS:  cpu time    0.00: real time    0.00
    CHARGE:  cpu time    0.04: real time    0.04
    MIXING:  cpu time    0.00: real time    0.00
    --------------------------------------------
      LOOP:  cpu time    0.32: real time    0.32

 eigenvalue-minimisations  :    36
 total energy-change (2. order) :-0.2724949E-03  (-0.2724949E-03)
 number of electron       7.9999791 magnetization 
 augmentation part        0.7723222 magnetization 

 Broyden mixing:
  rms(total) = 0.68737E+00    rms(broyden)= 0.68677E+00
  rms(prec ) = 0.95616E+00
  weight for this iteration     100.00

 Free energy of the ion-electron system (eV)
  ---------------------------------------------------
  alpha Z        PSCENC =         0.22422278
  Ewald energy   TEWEN  =        34.41234645
  -1/2 Hartree   DENC   =      -405.15375360
  -exchange  EXHF       =         0.00000000
  -V(xc)+E(xc)   XCENC  =        31.75156159
  PAW double counting   =       247.56105404     -249.42875511
  entropy T*S    EENTRO =        -0.00000000
  eigenvalues    EBANDS =      -131.81163421
  atomic energy  EATOM  =       457.32929435
  ---------------------------------------------------
  free energy    TOTEN  =       -15.11566371 eV

  energy without entropy =      -15.11566371  energy(sigma->0) =      -15.11566371


--------------------------------------------------------------------------------------------------------


 E-fermi : -10.3198     XC(G=0):  -0.7305     alpha+bet : -0.1301


 k-point   1 :       0.0000    0.0000    0.0000
  band No.  band energies     occupation 
      1     -27.6666      2.00000
      2     -14.3333      2.00000
      3     -13.0882      2.00000
      4     -10.8178      2.00000
      5      -2.3916      0.00000
      6      -0.7967      0.00000
      7       0.0786      0.00000
      8       0.7991      0.00000
      9       0.8637      0.00000
     10       1.1027      0.00000
     11       1.1918      0.00000
     12       1.4602      0.00000


----------------------------------------- Iteration    1(   6)  ---------------------------------------


    POTLOK:  cpu time    0.08: real time    0.08
    SETDIJ:  cpu time    0.00: real time    0.00
     EDDAV:  cpu time    0.20: real time    0.20
       DOS:  cpu time    0.00: real time    0.00
    CHARGE:  cpu time    0.04: real time    0.04
    MIXING:  cpu time    0.00: real time    0.00
    --------------------------------------------
      LOOP:  cpu time    0.32: real time    0.36

 eigenvalue-minimisations  :    24
 total energy-change (2. order) : 0.1421356E+01  (-0.9696905E+00)
 number of electron       7.9999830 magnetization 
 augmentation part        0.6203912 magnetization 

 Broyden mixing:
  rms(total) = 0.33598E+00    rms(broyden)= 0.33567E+00
  rms(prec ) = 0.39159E+00
  weight for this iteration     100.00

 eigenvalues of (default mixing * dielectric matrix)
  average eigenvalue GAMMA=   0.7902
  0.7902

 Free energy of the ion-electron system (eV)
  ---------------------------------------------------
  alpha Z        PSCENC =         0.22422278
  Ewald energy   TEWEN  =        34.41234645
  -1/2 Hartree   DENC   =      -426.15293191
  -exchange  EXHF       =         0.00000000
  -V(xc)+E(xc)   XCENC  =        32.89474061
  PAW double counting   =       289.38055776     -291.52458151
  entropy T*S    EENTRO =        -0.00000000
  eigenvalues    EBANDS =      -110.25795675
  atomic energy  EATOM  =       457.32929435
  ---------------------------------------------------
  free energy    TOTEN  =       -13.69430821 eV

  energy without entropy =      -13.69430821  energy(sigma->0) =      -13.69430821


--------------------------------------------------------------------------------------------------------


 E-fermi :  -7.2197     XC(G=0):  -0.9109     alpha+bet : -0.1301


 k-point   1 :       0.0000    0.0000    0.0000
  band No.  band energies     occupation 
      1     -24.8379      2.00000
      2     -12.1260      2.00000
      3     -10.4032      2.00000
      4      -7.7619      2.00000
      5      -1.9165      0.00000
      6      -0.2858      0.00000
      7      -0.0350      0.00000
      8       0.7122      0.00000
      9       0.8718      0.00000
     10       0.9468      0.00000
     11       0.9501      0.00000
     12       1.3621      0.00000


----------------------------------------- Iteration    1(   7)  ---------------------------------------


    POTLOK:  cpu time    0.07: real time    0.07
    SETDIJ:  cpu time    0.00: real time    0.00
     EDDAV:  cpu time    0.26: real time    0.26
       DOS:  cpu time    0.00: real time    0.00
    CHARGE:  cpu time    0.04: real time    0.04
    MIXING:  cpu time    0.00: real time    0.00
    --------------------------------------------
      LOOP:  cpu time    0.37: real time    0.38

 eigenvalue-minimisations  :    36
 total energy-change (2. order) : 0.9283127E-01  (-0.1716199E-01)
 number of electron       7.9999825 magnetization 
 augmentation part        0.6365966 magnetization 

 Broyden mixing:
  rms(total) = 0.19273E+00    rms(broyden)= 0.19272E+00
  rms(prec ) = 0.23754E+00
  weight for this iteration     100.00

 eigenvalues of (default mixing * dielectric matrix)
  average eigenvalue GAMMA=   1.6978
  0.9016  2.4939

 Free energy of the ion-electron system (eV)
  ---------------------------------------------------
  alpha Z        PSCENC =         0.22422278
  Ewald energy   TEWEN  =        34.41234645
  -1/2 Hartree   DENC   =      -426.43596231
  -exchange  EXHF       =         0.00000000
  -V(xc)+E(xc)   XCENC  =        32.88985043
  PAW double counting   =       290.42245914     -292.47752897
  entropy T*S    EENTRO =        -0.00000000
  eigenvalues    EBANDS =      -109.96615880
  atomic energy  EATOM  =       457.32929435
  ---------------------------------------------------
  free energy    TOTEN  =       -13.60147694 eV

  energy without entropy =      -13.60147694  energy(sigma->0) =      -13.60147694


--------------------------------------------------------------------------------------------------------


 E-fermi :  -7.2304     XC(G=0):  -0.9142     alpha+bet : -0.1301


 k-point   1 :       0.0000    0.0000    0.0000
  band No.  band energies     occupation 
      1     -24.8279      2.00000
      2     -12.0757      2.00000
      3     -10.3530      2.00000
      4      -7.7265      2.00000
      5      -1.8825      0.00000
      6      -0.2767      0.00000
      7      -0.0596      0.00000
      8       0.7195      0.00000
      9       0.8709      0.00000
     10       0.9425      0.00000
     11       0.9469      0.00000
     12       1.3415      0.00000


----------------------------------------- Iteration    1(   8)  ---------------------------------------


    POTLOK:  cpu time    0.07: real time    0.07
    SETDIJ:  cpu time    0.00: real time    0.00
     EDDAV:  cpu time    0.26: real time    0.26
       DOS:  cpu time    0.00: real time    0.00
    CHARGE:  cpu time    0.04: real time    0.04
    MIXING:  cpu time    0.00: real time    0.00
    --------------------------------------------
      LOOP:  cpu time    0.37: real time    0.39

 eigenvalue-minimisations  :    36
 total energy-change (2. order) : 0.8794497E-01  (-0.8334801E-02)
 number of electron       7.9999826 magnetization 
 augmentation part        0.6337854 magnetization 

 Broyden mixing:
  rms(total) = 0.24209E-01    rms(broyden)= 0.24205E-01
  rms(prec ) = 0.45985E-01
  weight for this iteration     100.00

 eigenvalues of (default mixing * dielectric matrix)
  average eigenvalue GAMMA=   1.4523
  2.3752  1.0963  0.8853

 Free energy of the ion-electron system (eV)
  ---------------------------------------------------
  alpha Z        PSCENC =         0.22422278
  Ewald energy   TEWEN  =        34.41234645
  -1/2 Hartree   DENC   =      -431.49526636
  -exchange  EXHF       =         0.00000000
  -V(xc)+E(xc)   XCENC  =        33.15135264
  PAW double counting   =       299.75776682     -301.73842760
  entropy T*S    EENTRO =        -0.00000000
  eigenvalues    EBANDS =      -105.15482104
  atomic energy  EATOM  =       457.32929435
  ---------------------------------------------------
  free energy    TOTEN  =       -13.51353197 eV

  energy without entropy =      -13.51353197  energy(sigma->0) =      -13.51353197


--------------------------------------------------------------------------------------------------------


 E-fermi :  -6.5370     XC(G=0):  -0.9144     alpha+bet : -0.1301


 k-point   1 :       0.0000    0.0000    0.0000
  band No.  band energies     occupation 
      1     -24.2315      2.00000
      2     -11.5341      2.00000
      3      -9.7361      2.00000
      4      -7.0758      2.00000
      5      -1.6984      0.00000
      6      -0.1369      0.00000
      7      -0.0737      0.00000
      8       0.7261      0.00000
      9       0.8670      0.00000
     10       0.9379      0.00000
     11       0.9430      0.00000
     12       1.3836      0.00000


----------------------------------------- Iteration    1(   9)  ---------------------------------------


    POTLOK:  cpu time    0.07: real time    0.07
    SETDIJ:  cpu time    0.00: real time    0.00
     EDDAV:  cpu time    0.19: real time    0.19
       DOS:  cpu time    0.00: real time    0.00
    CHARGE:  cpu time    0.04: real time    0.04
    MIXING:  cpu time    0.00: real time    0.00
    --------------------------------------------
      LOOP:  cpu time    0.31: real time    0.32

 eigenvalue-minimisations  :    24
 total energy-change (2. order) :-0.5242501E-02  (-0.2468159E-03)
 number of electron       7.9999827 magnetization 
 augmentation part        0.6322979 magnetization 

 Broyden mixing:
  rms(total) = 0.13318E-01    rms(broyden)= 0.13318E-01
  rms(prec ) = 0.33210E-01
  weight for this iteration     100.00

 eigenvalues of (default mixing * dielectric matrix)
  average eigenvalue GAMMA=   1.8614
  0.9331  0.9331  2.9293  2.6499

 Free energy of the ion-electron system (eV)
  ---------------------------------------------------
  alpha Z        PSCENC =         0.22422278
  Ewald energy   TEWEN  =        34.41234645
  -1/2 Hartree   DENC   =      -431.78206267
  -exchange  EXHF       =         0.00000000
  -V(xc)+E(xc)   XCENC  =        33.14891262
  PAW double counting   =       297.69017228     -299.67164487
  entropy T*S    EENTRO =        -0.00000000
  eigenvalues    EBANDS =      -104.87001540
  atomic energy  EATOM  =       457.32929435
  ---------------------------------------------------
  free energy    TOTEN  =       -13.51877447 eV

  energy without entropy =      -13.51877447  energy(sigma->0) =      -13.51877447


--------------------------------------------------------------------------------------------------------


 E-fermi :  -6.5140     XC(G=0):  -0.9007     alpha+bet : -0.1301


 k-point   1 :       0.0000    0.0000    0.0000
  band No.  band energies     occupation 
      1     -24.1888      2.00000
      2     -11.4980      2.00000
      3      -9.7071      2.00000
      4      -7.0410      2.00000
      5      -1.6673      0.00000
      6      -0.0948      0.00000
      7      -0.0754      0.00000
      8       0.7517      0.00000
      9       0.8808      0.00000
     10       0.9519      0.00000
     11       0.9638      0.00000
     12       1.3979      0.00000


----------------------------------------- Iteration    1(  10)  ---------------------------------------


    POTLOK:  cpu time    0.07: real time    0.07
    SETDIJ:  cpu time    0.00: real time    0.00
     EDDAV:  cpu time    0.19: real time    0.19
       DOS:  cpu time    0.00: real time    0.00
    CHARGE:  cpu time    0.04: real time    0.04
    MIXING:  cpu time    0.00: real time    0.00
    --------------------------------------------
      LOOP:  cpu time    0.31: real time    0.32

 eigenvalue-minimisations  :    24
 total energy-change (2. order) :-0.5955789E-02  (-0.4428714E-03)
 number of electron       7.9999827 magnetization 
 augmentation part        0.6325316 magnetization 

 Broyden mixing:
  rms(total) = 0.68319E-02    rms(broyden)= 0.68303E-02
  rms(prec ) = 0.14776E-01
  weight for this iteration     100.00

 eigenvalues of (default mixing * dielectric matrix)
  average eigenvalue GAMMA=   1.7851
  3.2880  2.2820  0.9227  0.9227  1.5099

 Free energy of the ion-electron system (eV)
  ---------------------------------------------------
  alpha Z        PSCENC =         0.22422278
  Ewald energy   TEWEN  =        34.41234645
  -1/2 Hartree   DENC   =      -432.61389101
  -exchange  EXHF       =         0.00000000
  -V(xc)+E(xc)   XCENC  =        33.16285797
  PAW double counting   =       295.01136980     -296.98191419
  entropy T*S    EENTRO =        -0.00000000
  eigenvalues    EBANDS =      -104.06901641
  atomic energy  EATOM  =       457.32929435
  ---------------------------------------------------
  free energy    TOTEN  =       -13.52473025 eV

  energy without entropy =      -13.52473025  energy(sigma->0) =      -13.52473025


--------------------------------------------------------------------------------------------------------


 E-fermi :  -6.4594     XC(G=0):  -0.8586     alpha+bet : -0.1301


 k-point   1 :       0.0000    0.0000    0.0000
  band No.  band energies     occupation 
      1     -24.0841      2.00000
      2     -11.3957      2.00000
      3      -9.6125      2.00000
      4      -6.9422      2.00000
      5      -1.5507      0.00000
      6      -0.0911      0.00000
      7       0.0666      0.00000
      8       0.8261      0.00000
      9       0.9273      0.00000
     10       0.9824      0.00000
     11       1.0149      0.00000
     12       1.4300      0.00000


----------------------------------------- Iteration    1(  11)  ---------------------------------------


    POTLOK:  cpu time    0.07: real time    0.07
    SETDIJ:  cpu time    0.00: real time    0.00
     EDDAV:  cpu time    0.19: real time    0.19
       DOS:  cpu time    0.00: real time    0.00
    CHARGE:  cpu time    0.04: real time    0.04
    MIXING:  cpu time    0.00: real time    0.00
    --------------------------------------------
      LOOP:  cpu time    0.30: real time    0.31

 eigenvalue-minimisations  :    24
 total energy-change (2. order) :-0.6427109E-02  (-0.2981349E-03)
 number of electron       7.9999827 magnetization 
 augmentation part        0.6307021 magnetization 

 Broyden mixing:
  rms(total) = 0.68558E-02    rms(broyden)= 0.68546E-02
  rms(prec ) = 0.11157E-01
  weight for this iteration     100.00

 eigenvalues of (default mixing * dielectric matrix)
  average eigenvalue GAMMA=   2.0328
  4.3432  2.6217  2.4177  1.0034  0.9054  0.9054

 Free energy of the ion-electron system (eV)
  ---------------------------------------------------
  alpha Z        PSCENC =         0.22422278
  Ewald energy   TEWEN  =        34.41234645
  -1/2 Hartree   DENC   =      -433.02689188
  -exchange  EXHF       =         0.00000000
  -V(xc)+E(xc)   XCENC  =        33.17511655
  PAW double counting   =       296.40496980     -298.37866781
  entropy T*S    EENTRO =        -0.00000000
  eigenvalues    EBANDS =      -103.67154760
  atomic energy  EATOM  =       457.32929435
  ---------------------------------------------------
  free energy    TOTEN  =       -13.53115736 eV

  energy without entropy =      -13.53115736  energy(sigma->0) =      -13.53115736


--------------------------------------------------------------------------------------------------------


 E-fermi :  -6.3849     XC(G=0):  -0.7928     alpha+bet : -0.1301


 k-point   1 :       0.0000    0.0000    0.0000
  band No.  band energies     occupation 
      1     -24.0384      2.00000
      2     -11.3536      2.00000
      3      -9.5552      2.00000
      4      -6.8885      2.00000
      5      -1.5055      0.00000
      6      -0.0398      0.00000
      7       0.1756      0.00000
      8       0.9157      0.00000
      9       0.9888      0.00000
     10       1.0508      0.00000
     11       1.0896      0.00000
     12       1.5174      0.00000


----------------------------------------- Iteration    1(  12)  ---------------------------------------


    POTLOK:  cpu time    0.05: real time    0.06
    SETDIJ:  cpu time    0.00: real time    0.00
     EDDAV:  cpu time    0.14: real time    0.14
       DOS:  cpu time    0.00: real time    0.00
    CHARGE:  cpu time    0.03: real time    0.03
    MIXING:  cpu time    0.00: real time    0.00
    --------------------------------------------
      LOOP:  cpu time    0.23: real time    0.25

 eigenvalue-minimisations  :    24
 total energy-change (2. order) :-0.2421969E-02  (-0.8505752E-04)
 number of electron       7.9999827 magnetization 
 augmentation part        0.6314917 magnetization 

 Broyden mixing:
  rms(total) = 0.23643E-02    rms(broyden)= 0.23640E-02
  rms(prec ) = 0.48759E-02
  weight for this iteration     100.00

 eigenvalues of (default mixing * dielectric matrix)
  average eigenvalue GAMMA=   2.1272
  4.9224  2.7306  2.7306  0.9283  0.9283  1.4499  1.2004

 Free energy of the ion-electron system (eV)
  ---------------------------------------------------
  alpha Z        PSCENC =         0.22422278
  Ewald energy   TEWEN  =        34.41234645
  -1/2 Hartree   DENC   =      -432.85459032
  -exchange  EXHF       =         0.00000000
  -V(xc)+E(xc)   XCENC  =        33.15881515
  PAW double counting   =       295.96126097     -297.93455781
  entropy T*S    EENTRO =        -0.00000000
  eigenvalues    EBANDS =      -103.83037089
  atomic energy  EATOM  =       457.32929435
  ---------------------------------------------------
  free energy    TOTEN  =       -13.53357933 eV

  energy without entropy =      -13.53357933  energy(sigma->0) =      -13.53357933


--------------------------------------------------------------------------------------------------------


 E-fermi :  -6.4116     XC(G=0):  -0.7149     alpha+bet : -0.1301


 k-point   1 :       0.0000    0.0000    0.0000
  band No.  band energies     occupation 
      1     -24.0596      2.00000
      2     -11.3692      2.00000
      3      -9.5748      2.00000
      4      -6.9116      2.00000
      5      -1.4599      0.00000
      6       0.0214      0.00000
      7       0.2931      0.00000
      8       1.0002      0.00000
      9       1.0410      0.00000
     10       1.1373      0.00000
     11       1.1665      0.00000
     12       1.6246      0.00000


----------------------------------------- Iteration    1(  13)  ---------------------------------------


    POTLOK:  cpu time    0.05: real time    0.05
    SETDIJ:  cpu time    0.00: real time    0.00
     EDDAV:  cpu time    0.14: real time    0.14
       DOS:  cpu time    0.00: real time    0.00
    CHARGE:  cpu time    0.03: real time    0.03
    MIXING:  cpu time    0.00: real time    0.00
    --------------------------------------------
      LOOP:  cpu time    0.23: real time    0.24

 eigenvalue-minimisations  :    24
 total energy-change (2. order) :-0.1994777E-02  (-0.2831474E-04)
 number of electron       7.9999827 magnetization 
 augmentation part        0.6314812 magnetization 

 Broyden mixing:
  rms(total) = 0.13817E-02    rms(broyden)= 0.13816E-02
  rms(prec ) = 0.26455E-02
  weight for this iteration     100.00

 eigenvalues of (default mixing * dielectric matrix)
  average eigenvalue GAMMA=   2.2277
  6.0736  3.2825  2.3022  2.3022  0.9349  0.9349  0.9957  0.9957

 Free energy of the ion-electron system (eV)
  ---------------------------------------------------
  alpha Z        PSCENC =         0.22422278
  Ewald energy   TEWEN  =        34.41234645
  -1/2 Hartree   DENC   =      -432.88748101
  -exchange  EXHF       =         0.00000000
  -V(xc)+E(xc)   XCENC  =        33.15738863
  PAW double counting   =       296.00175541     -297.97371495
  entropy T*S    EENTRO =        -0.00000000
  eigenvalues    EBANDS =      -103.79938578
  atomic energy  EATOM  =       457.32929435
  ---------------------------------------------------
  free energy    TOTEN  =       -13.53557411 eV

  energy without entropy =      -13.53557411  energy(sigma->0) =      -13.53557411


--------------------------------------------------------------------------------------------------------


 E-fermi :  -6.4166     XC(G=0):  -0.6548     alpha+bet : -0.1301


 k-point   1 :       0.0000    0.0000    0.0000
  band No.  band energies     occupation 
      1     -24.0542      2.00000
      2     -11.3650      2.00000
      3      -9.5728      2.00000
      4      -6.9077      2.00000
      5      -1.4610      0.00000
      6       0.1201      0.00000
      7       0.2947      0.00000
      8       1.0480      0.00000
      9       1.0789      0.00000
     10       1.2256      0.00000
     11       1.2447      0.00000
     12       1.7525      0.00000


----------------------------------------- Iteration    1(  14)  ---------------------------------------


    POTLOK:  cpu time    0.05: real time    0.05
    SETDIJ:  cpu time    0.00: real time    0.00
     EDDAV:  cpu time    0.19: real time    0.19
       DOS:  cpu time    0.00: real time    0.00
    CHARGE:  cpu time    0.03: real time    0.03
    MIXING:  cpu time    0.00: real time    0.00
    --------------------------------------------
      LOOP:  cpu time    0.28: real time    0.30

 eigenvalue-minimisations  :    36
 total energy-change (2. order) :-0.6825113E-03  (-0.6971669E-05)
 number of electron       7.9999827 magnetization 
 augmentation part        0.6316749 magnetization 

 Broyden mixing:
  rms(total) = 0.81313E-03    rms(broyden)= 0.81286E-03
  rms(prec ) = 0.15372E-02
  weight for this iteration     100.00

 eigenvalues of (default mixing * dielectric matrix)
  average eigenvalue GAMMA=   2.5008
  7.2938  4.1200  2.8561  2.3510  1.9489  0.9209  0.9209  1.0387  1.0569

 Free energy of the ion-electron system (eV)
  ---------------------------------------------------
  alpha Z        PSCENC =         0.22422278
  Ewald energy   TEWEN  =        34.41234645
  -1/2 Hartree   DENC   =      -432.81603304
  -exchange  EXHF       =         0.00000000
  -V(xc)+E(xc)   XCENC  =        33.15283927
  PAW double counting   =       295.84149543     -297.81316968
  entropy T*S    EENTRO =        -0.00000000
  eigenvalues    EBANDS =      -103.86725219
  atomic energy  EATOM  =       457.32929435
  ---------------------------------------------------
  free energy    TOTEN  =       -13.53625662 eV

  energy without entropy =      -13.53625662  energy(sigma->0) =      -13.53625662


--------------------------------------------------------------------------------------------------------


 E-fermi :  -6.3850     XC(G=0):  -0.6307     alpha+bet : -0.1301


 k-point   1 :       0.0000    0.0000    0.0000
  band No.  band energies     occupation 
      1     -24.0625      2.00000
      2     -11.3724      2.00000
      3      -9.5818      2.00000
      4      -6.9169      2.00000
      5      -1.4757      0.00000
      6       0.1804      0.00000
      7       0.2698      0.00000
      8       1.0550      0.00000
      9       1.0877      0.00000
     10       1.2709      0.00000
     11       1.2776      0.00000
     12       1.8027      0.00000


----------------------------------------- Iteration    1(  15)  ---------------------------------------


    POTLOK:  cpu time    0.05: real time    0.05
    SETDIJ:  cpu time    0.00: real time    0.00
     EDDAV:  cpu time    0.14: real time    0.14
       DOS:  cpu time    0.00: real time    0.00
    CHARGE:  cpu time    0.03: real time    0.03
    MIXING:  cpu time    0.00: real time    0.00
    --------------------------------------------
      LOOP:  cpu time    0.23: real time    0.24

 eigenvalue-minimisations  :    24
 total energy-change (2. order) :-0.4935530E-03  (-0.4993885E-05)
 number of electron       7.9999827 magnetization 
 augmentation part        0.6316022 magnetization 

 Broyden mixing:
  rms(total) = 0.27138E-03    rms(broyden)= 0.27131E-03
  rms(prec ) = 0.46447E-03
  weight for this iteration     100.00

 eigenvalues of (default mixing * dielectric matrix)
  average eigenvalue GAMMA=   2.4880
  7.8161  4.3839  2.8527  2.6074  1.8085  1.5243  0.9243  0.9243  1.0192  1.0192

 Free energy of the ion-electron system (eV)
  ---------------------------------------------------
  alpha Z        PSCENC =         0.22422278
  Ewald energy   TEWEN  =        34.41234645
  -1/2 Hartree   DENC   =      -432.81243596
  -exchange  EXHF       =         0.00000000
  -V(xc)+E(xc)   XCENC  =        33.15244230
  PAW double counting   =       295.78364024     -297.75514987
  entropy T*S    EENTRO =        -0.00000000
  eigenvalues    EBANDS =      -103.87111046
  atomic energy  EATOM  =       457.32929435
  ---------------------------------------------------
  free energy    TOTEN  =       -13.53675017 eV

  energy without entropy =      -13.53675017  energy(sigma->0) =      -13.53675017


--------------------------------------------------------------------------------------------------------


 E-fermi :  -6.4516     XC(G=0):  -0.6015     alpha+bet : -0.1301


 k-point   1 :       0.0000    0.0000    0.0000
  band No.  band energies     occupation 
      1     -24.0637      2.00000
      2     -11.3733      2.00000
      3      -9.5815      2.00000
      4      -6.9170      2.00000
      5      -1.4935      0.00000
      6       0.2306      0.00000
      7       0.2677      0.00000
      8       1.0549      0.00000
      9       1.1108      0.00000
     10       1.3030      0.00000
     11       1.3268      0.00000
     12       1.8404      0.00000


----------------------------------------- Iteration    1(  16)  ---------------------------------------


    POTLOK:  cpu time    0.05: real time    0.05
    SETDIJ:  cpu time    0.00: real time    0.00
     EDDAV:  cpu time    0.20: real time    0.20
       DOS:  cpu time    0.00: real time    0.00
    --------------------------------------------
      LOOP:  cpu time    0.26: real time    0.27

 eigenvalue-minimisations  :    36
 total energy-change (2. order) :-0.6604910E-04  (-0.2984305E-06)
 number of electron       7.9999827 magnetization 
 augmentation part        0.6316022 magnetization 

 Free energy of the ion-electron system (eV)
  ---------------------------------------------------
  alpha Z        PSCENC =         0.22422278
  Ewald energy   TEWEN  =        34.41234645
  -1/2 Hartree   DENC   =      -432.80962425
  -exchange  EXHF       =         0.00000000
  -V(xc)+E(xc)   XCENC  =        33.15219344
  PAW double counting   =       295.78341940     -297.75505021
  entropy T*S    EENTRO =        -0.00000000
  eigenvalues    EBANDS =      -103.87361818
  atomic energy  EATOM  =       457.32929435
  ---------------------------------------------------
  free energy    TOTEN  =       -13.53681622 eV

  energy without entropy =      -13.53681622  energy(sigma->0) =      -13.53681622


--------------------------------------------------------------------------------------------------------




 average (electrostatic) potential at core
  the test charge radii are     0.7215  0.5201
  (the norm of the test charge is              1.0000)
       1 -80.5556       2 -43.4484       3 -43.4459
 
 
 
 E-fermi :  -6.4504     XC(G=0):  -0.5918     alpha+bet : -0.1301


 k-point   1 :       0.0000    0.0000    0.0000
  band No.  band energies     occupation 
      1     -24.0638      2.00000
      2     -11.3736      2.00000
      3      -9.5820      2.00000
      4      -6.9174      2.00000
      5      -1.4949      0.00000
      6       0.2242      0.00000
      7       0.2900      0.00000
      8       1.0607      0.00000
      9       1.1230      0.00000
     10       1.3105      0.00000
     11       1.3318      0.00000
     12       1.8423      0.00000


--------------------------------------------------------------------------------------------------------


 soft charge-density along one line, spin component           1
         0         1         2         3         4         5         6         7         8         9
 total charge-density along one line
 
 pseudopotential strength for first ion, spin component:           1
 13.800  -0.530  -0.076  -0.031  -0.055   0.004   0.001   0.003
 -0.530   0.121   0.010   0.004   0.007  -0.002  -0.001  -0.001
 -0.076   0.010 -10.550   0.007   0.013   0.303  -0.001  -0.002
 -0.031   0.004   0.007 -10.423  -0.075  -0.001   0.280   0.013
 -0.055   0.007   0.013  -0.075 -10.513  -0.002   0.013   0.296
  0.004  -0.002   0.303  -0.001  -0.002   0.123   0.000   0.001
  0.001  -0.001  -0.001   0.280   0.013   0.000   0.130  -0.004
  0.003  -0.001  -0.002   0.013   0.296   0.001  -0.004   0.125
 total augmentation occupancy for first ion, spin component:           1
  1.888   0.105  -0.152  -0.062  -0.111   0.025   0.010   0.018
  0.105   0.028   0.125   0.051   0.091   0.019   0.008   0.014
 -0.152   0.125   1.364   0.020   0.035   0.181  -0.004  -0.006
 -0.062   0.051   0.020   1.701  -0.199  -0.004   0.101   0.047
 -0.111   0.091   0.035  -0.199   1.461  -0.006   0.047   0.157
  0.025   0.019   0.181  -0.004  -0.006   0.025  -0.001  -0.002
  0.010   0.008  -0.004   0.101   0.047  -0.001   0.009   0.010
  0.018   0.014  -0.006   0.047   0.157  -0.002   0.010   0.020


------------------------ aborting loop because EDIFF is reached ----------------------------------------


    CHARGE:  cpu time    0.03: real time    0.03
    FORLOC:  cpu time    0.00: real time    0.00
    FORNL :  cpu time    0.01: real time    0.01
    STRESS:  cpu time    0.16: real time    0.16
    FORHAR:  cpu time    0.02: real time    0.02
    MIXING:  cpu time    0.00: real time    0.00

  FORCE on cell =-STRESS in cart. coord.  units (eV):
  Direction    XX          YY          ZZ          XY          YZ          ZX
  --------------------------------------------------------------------------------------
  Alpha Z     0.22422     0.22422     0.22422
  Ewald      20.22132    37.64857   -23.45758    -7.02026    -4.12636    35.49899
  Hartree   146.07969   149.91806   136.82167    -1.10575    -0.65844     7.34992
  E(xc)     -35.14543   -35.05665   -35.34706    -0.01268    -0.00796     0.16675
  Local    -255.92496  -272.22529  -215.41478     6.09604     3.59166   -32.56689
  n-local   -27.94891   -27.66479   -28.93495    -0.43752    -0.25031     0.81658
  augment     6.31752     5.89345     7.36237     0.15457     0.09118    -0.86316
  Kinetic   142.79749   136.74945   157.62633     2.13004     1.25887   -12.26006
  Fock        0.00000     0.00000     0.00000     0.00000     0.00000     0.00000
  -------------------------------------------------------------------------------------
  Total      -3.37906    -4.51297    -1.11978    -0.19555    -0.10135    -1.85788
  in kB      -5.41385    -7.23058    -1.79409    -0.31331    -0.16238    -2.97665
  external pressure =       -4.81 kB  Pullay stress =        0.00 kB


 VOLUME and BASIS-vectors are now :
 -----------------------------------------------------------------------------
  energy-cutoff  :      500.00
  volume of cell :     1000.00
      direct lattice vectors                 reciprocal lattice vectors
    10.000000000  0.000000000  0.000000000     0.100000000  0.000000000  0.000000000
     0.000000000 10.000000000  0.000000000     0.000000000  0.100000000  0.000000000
     0.000000000  0.000000000 10.000000000     0.000000000  0.000000000  0.100000000

  length of vectors
    10.000000000 10.000000000 10.000000000     0.100000000  0.100000000  0.100000000


 FORCES acting on ions
    electron-ion (+dipol)            ewald-force                    non-local-force                 convergence-correction
 -----------------------------------------------------------------------------------------------
   0.316E+02 0.432E+02 0.177E+02   -.539E+02 -.736E+02 -.302E+02   0.256E+02 0.350E+02 0.144E+02   0.109E-02 0.154E-02 0.610E-03
   0.982E+01 -.717E+02 0.569E+01   -.104E+02 0.728E+02 -.601E+01   0.604E+00 -.504E+01 0.352E+00   -.192E-05 0.646E-03 0.214E-05
   -.633E+02 -.124E+01 -.357E+02   0.643E+02 0.775E+00 0.362E+02   -.443E+01 -.182E+00 -.250E+01   0.543E-03 0.107E-03 0.276E-03
 -----------------------------------------------------------------------------------------------
   -.218E+02 -.298E+02 -.122E+02   0.000E+00 0.155E-13 0.000E+00   0.218E+02 0.298E+02 0.122E+02   0.163E-02 0.229E-02 0.888E-03
 
 
 POSITION                                       TOTAL-FORCE (eV/Angst)
 -----------------------------------------------------------------------------------
      5.00000      5.00000      5.00000         3.390089      4.629849      1.902007
      4.89270      6.10300      4.93720         0.033883     -3.983583      0.028011
      5.96510      5.06830      5.54400        -3.423972     -0.646267     -1.930019
 -----------------------------------------------------------------------------------
    total drift:                                0.001321      0.003090     -0.001043


--------------------------------------------------------------------------------------------------------



  FREE ENERGIE OF THE ION-ELECTRON SYSTEM (eV)
  ---------------------------------------------------
  free  energy   TOTEN  =       -13.536816 eV

  energy  without entropy=      -13.536816  energy(sigma->0) =      -13.536816
 


--------------------------------------------------------------------------------------------------------


    POTLOK:  cpu time    0.06: real time    0.06


--------------------------------------------------------------------------------------------------------


 stress matrix after NEB project (eV)
     -3.37906     -0.19555     -1.85788
     -0.19555     -4.51297     -0.10135
     -1.85788     -0.10135     -1.11978
  FORCES: max atom, RMS     6.045316    4.770846
  FORCE total and by dimension    8.263348    4.629849
  Stress total and by dimension    6.327662    4.512974


--------------------------------------------------------------------------------------------------------


    WAVPRE:  cpu time    0.01: real time    0.01
    FEWALD:  cpu time    0.00: real time    0.00
    GENKIN:  cpu time    0.00: real time    0.00
    ORTHCH:  cpu time    0.01: real time    0.01
     LOOP+:  cpu time    5.44: real time    5.87


----------------------------------------- Iteration    2(   1)  ---------------------------------------


    POTLOK:  cpu time    0.05: real time    0.05
    SETDIJ:  cpu time    0.00: real time    0.00
     EDDAV:  cpu time    0.14: real time    0.14
       DOS:  cpu time    0.00: real time    0.00
    CHARGE:  cpu time    0.03: real time    0.03
    MIXING:  cpu time    0.00: real time    0.00
    --------------------------------------------
      LOOP:  cpu time    0.23: real time    0.24

 eigenvalue-minimisations  :    24
 total energy-change (2. order) : 0.6711354E+01  (-0.5598833E+02)
 number of electron       7.9999935 magnetization 
 augmentation part        0.8875872 magnetization 

 Broyden mixing:
  rms(total) = 0.65910E+00    rms(broyden)= 0.65802E+00
  rms(prec ) = 0.75888E+00
  weight for this iteration     100.00

 Free energy of the ion-electron system (eV)
  ---------------------------------------------------
  alpha Z        PSCENC =         0.26060310
  Ewald energy   TEWEN  =       120.57169605
  -1/2 Hartree   DENC   =      -482.26358365
  -exchange  EXHF       =         0.00000000
  -V(xc)+E(xc)   XCENC  =        36.05726946
  PAW double counting   =       295.82728774     -297.79898516
  entropy T*S    EENTRO =        -0.00000000
  eigenvalues    EBANDS =      -136.80897786
  atomic energy  EATOM  =       457.32929435
  ---------------------------------------------------
  free energy    TOTEN  =        -6.82539598 eV

  energy without entropy =       -6.82539598  energy(sigma->0) =       -6.82539598


--------------------------------------------------------------------------------------------------------


 E-fermi :  -8.3375     XC(G=0):  -0.4846     alpha+bet : -0.1512


 k-point   1 :       0.0000    0.0000    0.0000
  band No.  band energies     occupation 
      1     -30.7497      2.00000
      2     -19.8118      2.00000
      3      -9.0185      2.00000
      4      -8.8245      2.00000
      5      -0.4029      0.00000
      6       1.0131      0.00000
      7       1.2711      0.00000
      8       1.3721      0.00000
      9       1.5160      0.00000
     10       1.5650      0.00000
     11       1.6405      0.00000
     12       2.9413      0.00000


----------------------------------------- Iteration    2(   2)  ---------------------------------------


    POTLOK:  cpu time    0.05: real time    0.05
    SETDIJ:  cpu time    0.00: real time    0.00
     EDDAV:  cpu time    0.14: real time    0.14
       DOS:  cpu time    0.00: real time    0.00
    CHARGE:  cpu time    0.03: real time    0.03
    MIXING:  cpu time    0.00: real time    0.00
    --------------------------------------------
      LOOP:  cpu time    0.23: real time    0.24

 eigenvalue-minimisations  :    24
 total energy-change (2. order) :-0.2858479E+00  (-0.1011390E+01)
 number of electron       7.9999932 magnetization 
 augmentation part        0.9191501 magnetization 

 Broyden mixing:
  rms(total) = 0.49165E+00    rms(broyden)= 0.49159E+00
  rms(prec ) = 0.57090E+00
  weight for this iteration     100.00

 eigenvalues of (default mixing * dielectric matrix)
  average eigenvalue GAMMA=   1.7341
  1.7341

 Free energy of the ion-electron system (eV)
  ---------------------------------------------------
  alpha Z        PSCENC =         0.26060310
  Ewald energy   TEWEN  =       120.57169605
  -1/2 Hartree   DENC   =      -486.45799738
  -exchange  EXHF       =         0.00000000
  -V(xc)+E(xc)   XCENC  =        36.26224245
  PAW double counting   =       356.42956320     -358.78741651
  entropy T*S    EENTRO =        -0.00000000
  eigenvalues    EBANDS =      -132.71922910
  atomic energy  EATOM  =       457.32929435
  ---------------------------------------------------
  free energy    TOTEN  =        -7.11124385 eV

  energy without entropy =       -7.11124385  energy(sigma->0) =       -7.11124385


--------------------------------------------------------------------------------------------------------


 E-fermi :  -7.9823     XC(G=0):  -0.6047     alpha+bet : -0.1512


 k-point   1 :       0.0000    0.0000    0.0000
  band No.  band energies     occupation 
      1     -29.9842      2.00000
      2     -18.9094      2.00000
      3      -9.0022      2.00000
      4      -8.4638      2.00000
      5      -0.5084      0.00000
      6       0.9574      0.00000
      7       1.1376      0.00000
      8       1.1947      0.00000
      9       1.3458      0.00000
     10       1.4693      0.00000
     11       1.4892      0.00000
     12       2.7294      0.00000


----------------------------------------- Iteration    2(   3)  ---------------------------------------


    POTLOK:  cpu time    0.06: real time    0.06
    SETDIJ:  cpu time    0.00: real time    0.00
     EDDAV:  cpu time    0.24: real time    0.24
       DOS:  cpu time    0.00: real time    0.00
    CHARGE:  cpu time    0.03: real time    0.03
    MIXING:  cpu time    0.00: real time    0.00
    --------------------------------------------
      LOOP:  cpu time    0.33: real time    0.34

 eigenvalue-minimisations  :    48
 total energy-change (2. order) : 0.4284079E+00  (-0.2092669E+00)
 number of electron       7.9999934 magnetization 
 augmentation part        0.8629757 magnetization 

 Broyden mixing:
  rms(total) = 0.14848E+00    rms(broyden)= 0.14835E+00
  rms(prec ) = 0.17970E+00
  weight for this iteration     100.00

 eigenvalues of (default mixing * dielectric matrix)
  average eigenvalue GAMMA=   1.4774
  0.7262  2.2286

 Free energy of the ion-electron system (eV)
  ---------------------------------------------------
  alpha Z        PSCENC =         0.26060310
  Ewald energy   TEWEN  =       120.57169605
  -1/2 Hartree   DENC   =      -496.93900653
  -exchange  EXHF       =         0.00000000
  -V(xc)+E(xc)   XCENC  =        36.84212011
  PAW double counting   =       441.93286301     -444.86050003
  entropy T*S    EENTRO =        -0.00000000
  eigenvalues    EBANDS =      -121.81990598
  atomic energy  EATOM  =       457.32929435
  ---------------------------------------------------
  free energy    TOTEN  =        -6.68283591 eV

  energy without entropy =       -6.68283591  energy(sigma->0) =       -6.68283591


--------------------------------------------------------------------------------------------------------


 E-fermi :  -6.8441     XC(G=0):  -0.7155     alpha+bet : -0.1512


 k-point   1 :       0.0000    0.0000    0.0000
  band No.  band energies     occupation 
      1     -28.1524      2.00000
      2     -17.1764      2.00000
      3      -8.2196      2.00000
      4      -7.3615      2.00000
      5      -0.5788      0.00000
      6       0.9239      0.00000
      7       1.0383      0.00000
      8       1.0902      0.00000
      9       1.2247      0.00000
     10       1.3511      0.00000
     11       1.4050      0.00000
     12       2.5263      0.00000


----------------------------------------- Iteration    2(   4)  ---------------------------------------


    POTLOK:  cpu time    0.06: real time    0.06
    SETDIJ:  cpu time    0.00: real time    0.00
     EDDAV:  cpu time    0.14: real time    0.14
       DOS:  cpu time    0.00: real time    0.00
    CHARGE:  cpu time    0.03: real time    0.03
    MIXING:  cpu time    0.00: real time    0.00
    --------------------------------------------
      LOOP:  cpu time    0.23: real time    0.25

 eigenvalue-minimisations  :    24
 total energy-change (2. order) : 0.1571964E-01  (-0.8388733E-02)
 number of electron       7.9999934 magnetization 
 augmentation part        0.8672647 magnetization 

 Broyden mixing:
  rms(total) = 0.82956E-01    rms(broyden)= 0.82952E-01
  rms(prec ) = 0.10392E+00
  weight for this iteration     100.00

 eigenvalues of (default mixing * dielectric matrix)
  average eigenvalue GAMMA=   1.4286
  2.1538  1.0109  1.1212

 Free energy of the ion-electron system (eV)
  ---------------------------------------------------
  alpha Z        PSCENC =         0.26060310
  Ewald energy   TEWEN  =       120.57169605
  -1/2 Hartree   DENC   =      -496.03034948
  -exchange  EXHF       =         0.00000000
  -V(xc)+E(xc)   XCENC  =        36.79324423
  PAW double counting   =       462.15427383     -465.14718356
  entropy T*S    EENTRO =        -0.00000000
  eigenvalues    EBANDS =      -122.59869479
  atomic energy  EATOM  =       457.32929435
  ---------------------------------------------------
  free energy    TOTEN  =        -6.66711627 eV

  energy without entropy =       -6.66711627  energy(sigma->0) =       -6.66711627


--------------------------------------------------------------------------------------------------------


 E-fermi :  -6.9736     XC(G=0):  -0.7072     alpha+bet : -0.1512


 k-point   1 :       0.0000    0.0000    0.0000
  band No.  band energies     occupation 
      1     -28.1636      2.00000
      2     -17.1555      2.00000
      3      -8.4469      2.00000
      4      -7.5332      2.00000
      5      -0.5771      0.00000
      6       0.9112      0.00000
      7       1.0426      0.00000
      8       1.1002      0.00000
      9       1.2369      0.00000
     10       1.3508      0.00000
     11       1.4190      0.00000
     12       2.5118      0.00000


----------------------------------------- Iteration    2(   5)  ---------------------------------------


    POTLOK:  cpu time    0.05: real time    0.05
    SETDIJ:  cpu time    0.00: real time    0.00
     EDDAV:  cpu time    0.24: real time    0.24
       DOS:  cpu time    0.00: real time    0.00
    CHARGE:  cpu time    0.03: real time    0.03
    MIXING:  cpu time    0.00: real time    0.00
    --------------------------------------------
      LOOP:  cpu time    0.33: real time    0.35

 eigenvalue-minimisations  :    48
 total energy-change (2. order) : 0.1014905E-01  (-0.1041191E-01)
 number of electron       7.9999934 magnetization 
 augmentation part        0.8792061 magnetization 

 Broyden mixing:
  rms(total) = 0.18082E-01    rms(broyden)= 0.18043E-01
  rms(prec ) = 0.23149E-01
  weight for this iteration     100.00

 eigenvalues of (default mixing * dielectric matrix)
  average eigenvalue GAMMA=   1.5198
  2.3219  0.9426  1.4073  1.4073

 Free energy of the ion-electron system (eV)
  ---------------------------------------------------
  alpha Z        PSCENC =         0.26060310
  Ewald energy   TEWEN  =       120.57169605
  -1/2 Hartree   DENC   =      -493.52715474
  -exchange  EXHF       =         0.00000000
  -V(xc)+E(xc)   XCENC  =        36.64822355
  PAW double counting   =       459.08572747     -462.00670182
  entropy T*S    EENTRO =        -0.00000000
  eigenvalues    EBANDS =      -125.01865518
  atomic energy  EATOM  =       457.32929435
  ---------------------------------------------------
  free energy    TOTEN  =        -6.65696722 eV

  energy without entropy =       -6.65696722  energy(sigma->0) =       -6.65696722


--------------------------------------------------------------------------------------------------------


 E-fermi :  -7.3041     XC(G=0):  -0.6904     alpha+bet : -0.1512


 k-point   1 :       0.0000    0.0000    0.0000
  band No.  band energies     occupation 
      1     -28.5060      2.00000
      2     -17.4586      2.00000
      3      -8.7131      2.00000
      4      -7.8317      2.00000
      5      -0.5729      0.00000
      6       0.8814      0.00000
      7       1.0626      0.00000
      8       1.1192      0.00000
      9       1.2619      0.00000
     10       1.3652      0.00000
     11       1.4352      0.00000
     12       2.5108      0.00000


----------------------------------------- Iteration    2(   6)  ---------------------------------------


    POTLOK:  cpu time    0.05: real time    0.05
    SETDIJ:  cpu time    0.00: real time    0.00
     EDDAV:  cpu time    0.24: real time    0.24
       DOS:  cpu time    0.00: real time    0.00
    CHARGE:  cpu time    0.03: real time    0.03
    MIXING:  cpu time    0.00: real time    0.00
    --------------------------------------------
      LOOP:  cpu time    0.33: real time    0.34

 eigenvalue-minimisations  :    48
 total energy-change (2. order) :-0.2230745E-02  (-0.3347947E-03)
 number of electron       7.9999934 magnetization 
 augmentation part        0.8768620 magnetization 

 Broyden mixing:
  rms(total) = 0.85876E-02    rms(broyden)= 0.85872E-02
  rms(prec ) = 0.12846E-01
  weight for this iteration     100.00

 eigenvalues of (default mixing * dielectric matrix)
  average eigenvalue GAMMA=   1.5352
  2.6446  1.9933  0.9652  0.9652  1.1078

 Free energy of the ion-electron system (eV)
  ---------------------------------------------------
  alpha Z        PSCENC =         0.26060310
  Ewald energy   TEWEN  =       120.57169605
  -1/2 Hartree   DENC   =      -493.89869416
  -exchange  EXHF       =         0.00000000
  -V(xc)+E(xc)   XCENC  =        36.66815777
  PAW double counting   =       463.35944724     -466.28295283
  entropy T*S    EENTRO =        -0.00000000
  eigenvalues    EBANDS =      -124.66674949
  atomic energy  EATOM  =       457.32929435
  ---------------------------------------------------
  free energy    TOTEN  =        -6.65919797 eV

  energy without entropy =       -6.65919797  energy(sigma->0) =       -6.65919797


--------------------------------------------------------------------------------------------------------


 E-fermi :  -7.2973     XC(G=0):  -0.6894     alpha+bet : -0.1512


 k-point   1 :       0.0000    0.0000    0.0000
  band No.  band energies     occupation 
      1     -28.4656      2.00000
      2     -17.4092      2.00000
      3      -8.6649      2.00000
      4      -7.7937      2.00000
      5      -0.5800      0.00000
      6       0.8545      0.00000
      7       1.0728      0.00000
      8       1.1161      0.00000
      9       1.2661      0.00000
     10       1.3669      0.00000
     11       1.4378      0.00000
     12       2.5020      0.00000


----------------------------------------- Iteration    2(   7)  ---------------------------------------


    POTLOK:  cpu time    0.05: real time    0.06
    SETDIJ:  cpu time    0.00: real time    0.00
     EDDAV:  cpu time    0.25: real time    0.25
       DOS:  cpu time    0.00: real time    0.00
    CHARGE:  cpu time    0.03: real time    0.03
    MIXING:  cpu time    0.00: real time    0.00
    --------------------------------------------
      LOOP:  cpu time    0.34: real time    0.36

 eigenvalue-minimisations  :    48
 total energy-change (2. order) :-0.1083903E-02  (-0.8982864E-04)
 number of electron       7.9999934 magnetization 
 augmentation part        0.8779109 magnetization 

 Broyden mixing:
  rms(total) = 0.22144E-02    rms(broyden)= 0.22119E-02
  rms(prec ) = 0.56292E-02
  weight for this iteration     100.00

 eigenvalues of (default mixing * dielectric matrix)
  average eigenvalue GAMMA=   1.6495
  2.7266  2.2190  1.8336  1.0356  1.0410  1.0410

 Free energy of the ion-electron system (eV)
  ---------------------------------------------------
  alpha Z        PSCENC =         0.26060310
  Ewald energy   TEWEN  =       120.57169605
  -1/2 Hartree   DENC   =      -493.66613830
  -exchange  EXHF       =         0.00000000
  -V(xc)+E(xc)   XCENC  =        36.65396455
  PAW double counting   =       463.87707828     -466.78930887
  entropy T*S    EENTRO =        -0.00000000
  eigenvalues    EBANDS =      -124.89747104
  atomic energy  EATOM  =       457.32929435
  ---------------------------------------------------
  free energy    TOTEN  =        -6.66028187 eV

  energy without entropy =       -6.66028187  energy(sigma->0) =       -6.66028187


--------------------------------------------------------------------------------------------------------


 E-fermi :  -7.3080     XC(G=0):  -0.6829     alpha+bet : -0.1512


 k-point   1 :       0.0000    0.0000    0.0000
  band No.  band energies     occupation 
      1     -28.4995      2.00000
      2     -17.4371      2.00000
      3      -8.6890      2.00000
      4      -7.8232      2.00000
      5      -0.5816      0.00000
      6       0.8338      0.00000
      7       1.0864      0.00000
      8       1.1226      0.00000
      9       1.2792      0.00000
     10       1.3728      0.00000
     11       1.4429      0.00000
     12       2.5021      0.00000


----------------------------------------- Iteration    2(   8)  ---------------------------------------


    POTLOK:  cpu time    0.06: real time    0.06
    SETDIJ:  cpu time    0.00: real time    0.00
     EDDAV:  cpu time    0.24: real time    0.24
       DOS:  cpu time    0.00: real time    0.00
    CHARGE:  cpu time    0.03: real time    0.03
    MIXING:  cpu time    0.00: real time    0.00
    --------------------------------------------
      LOOP:  cpu time    0.34: real time    0.35

 eigenvalue-minimisations  :    48
 total energy-change (2. order) :-0.1417234E-02  (-0.3677222E-04)
 number of electron       7.9999934 magnetization 
 augmentation part        0.8781340 magnetization 

 Broyden mixing:
  rms(total) = 0.11583E-02    rms(broyden)= 0.11575E-02
  rms(prec ) = 0.26513E-02
  weight for this iteration     100.00

 eigenvalues of (default mixing * dielectric matrix)
  average eigenvalue GAMMA=   1.7446
  3.4156  2.4633  1.9070  1.0372  1.0372  1.0046  1.3470

 Free energy of the ion-electron system (eV)
  ---------------------------------------------------
  alpha Z        PSCENC =         0.26060310
  Ewald energy   TEWEN  =       120.57169605
  -1/2 Hartree   DENC   =      -493.62119248
  -exchange  EXHF       =         0.00000000
  -V(xc)+E(xc)   XCENC  =        36.64978669
  PAW double counting   =       463.31928203     -466.22725306
  entropy T*S    EENTRO =        -0.00000000
  eigenvalues    EBANDS =      -124.94391578
  atomic energy  EATOM  =       457.32929435
  ---------------------------------------------------
  free energy    TOTEN  =        -6.66169910 eV

  energy without entropy =       -6.66169910  energy(sigma->0) =       -6.66169910


--------------------------------------------------------------------------------------------------------


 E-fermi :  -7.2984     XC(G=0):  -0.6634     alpha+bet : -0.1512


 k-point   1 :       0.0000    0.0000    0.0000
  band No.  band energies     occupation 
      1     -28.5033      2.00000
      2     -17.4441      2.00000
      3      -8.6969      2.00000
      4      -7.8276      2.00000
      5      -0.5791      0.00000
      6       0.8065      0.00000
      7       1.0952      0.00000
      8       1.1628      0.00000
      9       1.3195      0.00000
     10       1.3912      0.00000
     11       1.4601      0.00000
     12       2.5178      0.00000


----------------------------------------- Iteration    2(   9)  ---------------------------------------


[...]

 eigenvalues of (default mixing * dielectric matrix)
  average eigenvalue GAMMA=   1.5680
  2.4658  2.3407  1.0026  1.0026  1.0285

 Free energy of the ion-electron system (eV)
  ---------------------------------------------------
  alpha Z        PSCENC =         1.39610216
  Ewald energy   TEWEN  =       -38.22836577
  -1/2 Hartree   DENC   =      -357.11556819
  -exchange  EXHF       =         0.00000000
  -V(xc)+E(xc)   XCENC  =        34.56139260
  PAW double counting   =       348.34670635     -350.63060627
  entropy T*S    EENTRO =        -0.00000000
  eigenvalues    EBANDS =      -109.50448502
  atomic energy  EATOM  =       457.32929435
  ---------------------------------------------------
  free energy    TOTEN  =       -13.84552979 eV

  energy without entropy =      -13.84552979  energy(sigma->0) =      -13.84552979


--------------------------------------------------------------------------------------------------------


 E-fermi :  -6.3989     XC(G=0):  -2.8533     alpha+bet : -0.8101


 k-point   1 :       0.0000    0.0000    0.0000
  band No.  band energies     occupation 
      1     -25.5757      2.00000
      2     -13.5664      2.00000
      3      -8.6988      2.00000
      4      -6.9114      2.00000
      5      -1.5567      0.00000
      6       2.5154      0.00000
      7       3.1406      0.00000
      8       3.5744      0.00000
      9       3.8366      0.00000
     10       4.3926      0.00000
     11       4.9775      0.00000
     12       5.6622      0.00000


----------------------------------------- Iteration   30(   7)  ---------------------------------------


    POTLOK:  cpu time    0.06: real time    0.06
    SETDIJ:  cpu time    0.00: real time    0.00
     EDDAV:  cpu time    0.14: real time    0.14
       DOS:  cpu time    0.00: real time    0.00
    CHARGE:  cpu time    0.03: real time    0.03
    MIXING:  cpu time    0.00: real time    0.00
    --------------------------------------------
      LOOP:  cpu time    0.24: real time    0.26

 eigenvalue-minimisations  :    24
 total energy-change (2. order) :-0.6020314E-02  (-0.1352913E-02)
 number of electron       8.0000007 magnetization 
 augmentation part        0.7289635 magnetization 

 Broyden mixing:
  rms(total) = 0.95042E-02    rms(broyden)= 0.95042E-02
  rms(prec ) = 0.20608E-01
  weight for this iteration     100.00

 eigenvalues of (default mixing * dielectric matrix)
  average eigenvalue GAMMA=   1.6831
  2.5102  2.5102  2.0495  1.0032  1.0127  1.0127

 Free energy of the ion-electron system (eV)
  ---------------------------------------------------
  alpha Z        PSCENC =         1.39610216
  Ewald energy   TEWEN  =       -38.22836577
  -1/2 Hartree   DENC   =      -359.32457455
  -exchange  EXHF       =         0.00000000
  -V(xc)+E(xc)   XCENC  =        34.66333541
  PAW double counting   =       348.60374261     -350.86735649
  entropy T*S    EENTRO =        -0.00000000
  eigenvalues    EBANDS =      -107.42372783
  atomic energy  EATOM  =       457.32929435
  ---------------------------------------------------
  free energy    TOTEN  =       -13.85155010 eV

  energy without entropy =      -13.85155010  energy(sigma->0) =      -13.85155010


--------------------------------------------------------------------------------------------------------


 E-fermi :  -6.1523     XC(G=0):  -2.6262     alpha+bet : -0.8101


 k-point   1 :       0.0000    0.0000    0.0000
  band No.  band energies     occupation 
      1     -25.3040      2.00000
      2     -13.3165      2.00000
      3      -8.4522      2.00000
      4      -6.6392      2.00000
      5      -1.3413      0.00000
      6       2.7324      0.00000
      7       3.3566      0.00000
      8       3.8037      0.00000
      9       4.0681      0.00000
     10       4.6038      0.00000
     11       5.1624      0.00000
     12       5.8930      0.00000


----------------------------------------- Iteration   30(   8)  ---------------------------------------


    POTLOK:  cpu time    0.06: real time    0.06
    SETDIJ:  cpu time    0.00: real time    0.00
     EDDAV:  cpu time    0.24: real time    0.25
       DOS:  cpu time    0.00: real time    0.00
    CHARGE:  cpu time    0.03: real time    0.03
    MIXING:  cpu time    0.00: real time    0.00
    --------------------------------------------
      LOOP:  cpu time    0.34: real time    0.35

 eigenvalue-minimisations  :    48
 total energy-change (2. order) :-0.3996314E-02  (-0.1155841E-03)
 number of electron       8.0000007 magnetization 
 augmentation part        0.7296852 magnetization 

 Broyden mixing:
  rms(total) = 0.24772E-02    rms(broyden)= 0.24772E-02
  rms(prec ) = 0.62530E-02
  weight for this iteration     100.00

 eigenvalues of (default mixing * dielectric matrix)
  average eigenvalue GAMMA=   1.7163
  3.5486  2.4255  2.0231  1.0074  1.0074  1.0010  1.0010

 Free energy of the ion-electron system (eV)
  ---------------------------------------------------
  alpha Z        PSCENC =         1.39610216
  Ewald energy   TEWEN  =       -38.22836577
  -1/2 Hartree   DENC   =      -359.19300795
  -exchange  EXHF       =         0.00000000
  -V(xc)+E(xc)   XCENC  =        34.64695584
  PAW double counting   =       347.35323458     -349.61663641
  entropy T*S    EENTRO =        -0.00000000
  eigenvalues    EBANDS =      -107.54312322
  atomic energy  EATOM  =       457.32929435
  ---------------------------------------------------
  free energy    TOTEN  =       -13.85554642 eV

  energy without entropy =      -13.85554642  energy(sigma->0) =      -13.85554642


--------------------------------------------------------------------------------------------------------


 E-fermi :  -6.0993     XC(G=0):  -2.5318     alpha+bet : -0.8101


 k-point   1 :       0.0000    0.0000    0.0000
  band No.  band energies     occupation 
      1     -25.3285      2.00000
      2     -13.3308      2.00000
      3      -8.4550      2.00000
      4      -6.6573      2.00000
      5      -1.2604      0.00000
      6       2.7950      0.00000
      7       3.4538      0.00000
      8       3.9136      0.00000
      9       4.1137      0.00000
     10       4.6451      0.00000
     11       5.2376      0.00000
     12       6.0005      0.00000


----------------------------------------- Iteration   30(   9)  ---------------------------------------


    POTLOK:  cpu time    0.06: real time    0.06
    SETDIJ:  cpu time    0.00: real time    0.00
     EDDAV:  cpu time    0.24: real time    0.24
       DOS:  cpu time    0.00: real time    0.00
    CHARGE:  cpu time    0.03: real time    0.03
    MIXING:  cpu time    0.00: real time    0.00
    --------------------------------------------
      LOOP:  cpu time    0.34: real time    0.35

 eigenvalue-minimisations  :    48
 total energy-change (2. order) :-0.6021246E-03  (-0.1245536E-04)
 number of electron       8.0000007 magnetization 
 augmentation part        0.7294430 magnetization 

 Broyden mixing:
  rms(total) = 0.14444E-02    rms(broyden)= 0.14444E-02
  rms(prec ) = 0.32076E-02
  weight for this iteration     100.00

 eigenvalues of (default mixing * dielectric matrix)
  average eigenvalue GAMMA=   1.8291
  3.8096  2.3255  2.2421  2.2421  1.0082  1.0082  1.0244  0.9724

 Free energy of the ion-electron system (eV)
  ---------------------------------------------------
  alpha Z        PSCENC =         1.39610216
  Ewald energy   TEWEN  =       -38.22836577
  -1/2 Hartree   DENC   =      -359.35211727
  -exchange  EXHF       =         0.00000000
  -V(xc)+E(xc)   XCENC  =        34.65381060
  PAW double counting   =       347.41295690     -349.67569397
  entropy T*S    EENTRO =        -0.00000000
  eigenvalues    EBANDS =      -107.39213554
  atomic energy  EATOM  =       457.32929435
  ---------------------------------------------------
  free energy    TOTEN  =       -13.85614854 eV

  energy without entropy =      -13.85614854  energy(sigma->0) =      -13.85614854


--------------------------------------------------------------------------------------------------------


 E-fermi :  -6.1527     XC(G=0):  -2.4553     alpha+bet : -0.8101


 k-point   1 :       0.0000    0.0000    0.0000
  band No.  band energies     occupation 
      1     -25.3081      2.00000
      2     -13.3125      2.00000
      3      -8.4377      2.00000
      4      -6.6377      2.00000
      5      -1.1950      0.00000
      6       2.8573      0.00000
      7       3.5215      0.00000
      8       3.9903      0.00000
      9       4.1523      0.00000
     10       4.6938      0.00000
     11       5.2976      0.00000
     12       6.0824      0.00000


----------------------------------------- Iteration   30(  10)  ---------------------------------------


    POTLOK:  cpu time    0.06: real time    0.06
    SETDIJ:  cpu time    0.00: real time    0.00
     EDDAV:  cpu time    0.14: real time    0.14
       DOS:  cpu time    0.00: real time    0.00
    CHARGE:  cpu time    0.03: real time    0.03
    MIXING:  cpu time    0.00: real time    0.00
    --------------------------------------------
      LOOP:  cpu time    0.24: real time    0.25

 eigenvalue-minimisations  :    24
 total energy-change (2. order) :-0.7213205E-03  (-0.9420340E-05)
 number of electron       8.0000007 magnetization 
 augmentation part        0.7293487 magnetization 

 Broyden mixing:
  rms(total) = 0.53629E-03    rms(broyden)= 0.53629E-03
  rms(prec ) = 0.10694E-02
  weight for this iteration     100.00

 eigenvalues of (default mixing * dielectric matrix)
  average eigenvalue GAMMA=   1.8256
  4.0331  2.8971  2.4425  1.9092  1.0136  1.0136  1.1144  1.0036  1.0036

 Free energy of the ion-electron system (eV)
  ---------------------------------------------------
  alpha Z        PSCENC =         1.39610216
  Ewald energy   TEWEN  =       -38.22836577
  -1/2 Hartree   DENC   =      -359.35543215
  -exchange  EXHF       =         0.00000000
  -V(xc)+E(xc)   XCENC  =        34.65281013
  PAW double counting   =       347.67657095     -349.94162556
  entropy T*S    EENTRO =        -0.00000000
  eigenvalues    EBANDS =      -107.38622398
  atomic energy  EATOM  =       457.32929435
  ---------------------------------------------------
  free energy    TOTEN  =       -13.85686986 eV

  energy without entropy =      -13.85686986  energy(sigma->0) =      -13.85686986


--------------------------------------------------------------------------------------------------------


 E-fermi :  -6.1299     XC(G=0):  -2.4409     alpha+bet : -0.8101


 k-point   1 :       0.0000    0.0000    0.0000
  band No.  band energies     occupation 
      1     -25.3063      2.00000
      2     -13.3120      2.00000
      3      -8.4382      2.00000
      4      -6.6366      2.00000
      5      -1.1929      0.00000
      6       2.8303      0.00000
      7       3.5570      0.00000
      8       4.0045      0.00000
      9       4.1336      0.00000
     10       4.6734      0.00000
     11       5.3180      0.00000
     12       6.1186      0.00000


----------------------------------------- Iteration   30(  11)  ---------------------------------------


    POTLOK:  cpu time    0.06: real time    0.06
    SETDIJ:  cpu time    0.00: real time    0.00
     EDDAV:  cpu time    0.24: real time    0.24
       DOS:  cpu time    0.00: real time    0.00
    --------------------------------------------
      LOOP:  cpu time    0.30: real time    0.31

 eigenvalue-minimisations  :    48
 total energy-change (2. order) :-0.4494806E-04  (-0.8440002E-06)
 number of electron       8.0000007 magnetization 
 augmentation part        0.7293487 magnetization 

 Free energy of the ion-electron system (eV)
  ---------------------------------------------------
  alpha Z        PSCENC =         1.39610216
  Ewald energy   TEWEN  =       -38.22836577
  -1/2 Hartree   DENC   =      -359.32869374
  -exchange  EXHF       =         0.00000000
  -V(xc)+E(xc)   XCENC  =        34.65123985
  PAW double counting   =       347.67646645     -349.94168007
  entropy T*S    EENTRO =        -0.00000000
  eigenvalues    EBANDS =      -107.41127804
  atomic energy  EATOM  =       457.32929435
  ---------------------------------------------------
  free energy    TOTEN  =       -13.85691481 eV

  energy without entropy =      -13.85691481  energy(sigma->0) =      -13.85691481


--------------------------------------------------------------------------------------------------------




 average (electrostatic) potential at core
  the test charge radii are     0.7215  0.5201
  (the norm of the test charge is              1.0000)
       1 -79.9310       2 -45.9996       3 -44.3961
 
 
 
 E-fermi :  -6.1289     XC(G=0):  -2.4411     alpha+bet : -0.8101


 k-point   1 :       0.0000    0.0000    0.0000
  band No.  band energies     occupation 
      1     -25.3099      2.00000
      2     -13.3151      2.00000
      3      -8.4409      2.00000
      4      -6.6398      2.00000
      5      -1.1963      0.00000
      6       2.8172      0.00000
      7       3.5611      0.00000
      8       4.0039      0.00000
      9       4.1349      0.00000
     10       4.6693      0.00000
     11       5.3182      0.00000
     12       6.1225      0.00000


--------------------------------------------------------------------------------------------------------


 soft charge-density along one line, spin component           1
         0         1         2         3         4         5         6         7         8         9
 total charge-density along one line
 
 pseudopotential strength for first ion, spin component:           1
 13.706  -0.509  -0.114   0.007  -0.071   0.006  -0.000   0.004
 -0.509   0.116   0.013  -0.001   0.009  -0.002   0.000  -0.001
 -0.114   0.013 -10.378   0.075   0.050   0.243  -0.012  -0.008
  0.007  -0.001   0.075 -10.232  -0.081  -0.012   0.219   0.013
 -0.071   0.009   0.050  -0.081 -10.366  -0.008   0.013   0.242
  0.006  -0.002   0.243  -0.012  -0.008   0.143   0.004   0.002
 -0.000   0.000  -0.012   0.219   0.013   0.004   0.150  -0.004
  0.004  -0.001  -0.008   0.013   0.242   0.002  -0.004   0.143
 total augmentation occupancy for first ion, spin component:           1
  1.831   0.194  -0.097  -0.010  -0.103   0.061  -0.005   0.034
  0.194   0.044   0.148  -0.005   0.104   0.027  -0.001   0.018
 -0.097   0.148   1.638   0.070   0.046   0.233  -0.049  -0.031
 -0.010  -0.005   0.070   1.763  -0.110  -0.048   0.138   0.055
 -0.103   0.104   0.046  -0.110   1.545  -0.030   0.055   0.230
  0.061   0.027   0.233  -0.048  -0.030   0.039  -0.013  -0.011
 -0.005  -0.001  -0.049   0.138   0.055  -0.013   0.015   0.015
  0.034   0.018  -0.031   0.055   0.230  -0.011   0.015   0.040


------------------------ aborting loop because EDIFF is reached ----------------------------------------


    CHARGE:  cpu time    0.03: real time    0.03
    FORLOC:  cpu time    0.00: real time    0.00
    FORNL :  cpu time    0.01: real time    0.01
    STRESS:  cpu time    0.16: real time    0.16
    FORHAR:  cpu time    0.02: real time    0.02
    MIXING:  cpu time    0.00: real time    0.00

  FORCE on cell =-STRESS in cart. coord.  units (eV):
  Direction    XX          YY          ZZ          XY          YZ          ZX
  --------------------------------------------------------------------------------------
  Alpha Z     1.39610     1.39610     1.39610
  Ewald      -3.85405     5.39492   -39.76929   -27.10107   -34.24105    46.06172
  Hartree   111.71483   120.63017   126.99218    -6.05308    -5.91259    12.93615
  E(xc)     -36.64168   -36.68619   -36.90816    -0.08730    -0.12248     0.15767
  Local    -192.11581  -208.61072  -191.14005    25.44375    28.96226   -46.83978
  n-local   -31.81823   -32.70090   -31.92309    -0.12574     0.19419     0.02144
  augment     6.62633     6.66810     7.96468     0.45156     0.67436    -0.77700
  Kinetic   145.82346   149.48958   164.54722     6.33496     8.41897   -10.78412
  Fock        0.00000     0.00000     0.00000     0.00000     0.00000     0.00000
  -------------------------------------------------------------------------------------
  Total       1.13094     5.58106     1.15960    -1.13694    -2.02634     0.77607
  in kB      11.28207    55.67561    11.56794   -11.34190   -20.21439     7.74191
  external pressure =       26.18 kB  Pullay stress =        0.00 kB


 VOLUME and BASIS-vectors are now :
 -----------------------------------------------------------------------------
  energy-cutoff  :      500.00
  volume of cell :      160.61
      direct lattice vectors                 reciprocal lattice vectors
     6.002956920 -0.295901085  0.992963775     0.172570436  0.008467590 -0.033664191
    -0.301620682  5.479721023 -0.167857284     0.008315733  0.183080018  0.004284740
     0.995682232 -0.163715921  5.062917898    -0.033569641  0.004409178  0.204259000

  length of vectors
     6.091717844  5.490582264  5.162492000     0.176027081  0.183318857  0.207046132


 FORCES acting on ions
    electron-ion (+dipol)            ewald-force                    non-local-force                 convergence-correction
 -----------------------------------------------------------------------------------------------
   0.353E+02 0.545E+02 -.312E+01   -.640E+02 -.101E+03 0.601E+01   0.293E+02 0.395E+02 -.672E+00   0.125E-03 -.122E-03 -.614E-03
   0.242E+02 -.886E+02 0.340E+02   -.285E+02 0.106E+03 -.408E+02   0.298E+01 -.110E+02 0.425E+01   0.616E-04 0.581E-03 -.182E-03
   -.832E+02 0.499E+01 -.312E+02   0.926E+02 -.538E+01 0.348E+02   -.844E+01 0.566E+00 -.325E+01   0.536E-03 0.135E-03 -.771E-04
 -----------------------------------------------------------------------------------------------
   -.238E+02 -.291E+02 -.326E+00   0.000E+00 -.533E-14 0.000E+00   0.238E+02 0.291E+02 0.326E+00   0.722E-03 0.594E-03 -.873E-03
 
 
 POSITION                                       TOTAL-FORCE (eV/Angst)
 -----------------------------------------------------------------------------------
      3.29008      2.45583      3.03524         0.518773     -7.097950      2.218685
      3.10410      3.24934      2.73841        -1.400417      6.922657     -2.522101
      4.17886      2.43357      3.36753         0.881644      0.175294      0.303416
 -----------------------------------------------------------------------------------
    total drift:                                0.000725     -0.000104     -0.000279


--------------------------------------------------------------------------------------------------------



  FREE ENERGIE OF THE ION-ELECTRON SYSTEM (eV)
  ---------------------------------------------------
  free  energy   TOTEN  =       -13.856915 eV

  energy  without entropy=      -13.856915  energy(sigma->0) =      -13.856915
 
 d Force = 0.6313846E+00[ 0.102E+01, 0.240E+00]  d Energy =-0.3575064E+00 0.989E+00
 d Force = 0.2432880E+02[ 0.256E+02, 0.230E+02]  d Ewald  = 0.4293909E+02-0.186E+02


--------------------------------------------------------------------------------------------------------


    POTLOK:  cpu time    0.06: real time    0.06


--------------------------------------------------------------------------------------------------------


 stress matrix after NEB project (eV)
      1.13094     -1.13694      0.77607
     -1.13694      5.58106     -2.02634
      0.77607     -2.02634      1.15960
  FORCES: max atom, RMS     7.499689    6.129655
  FORCE total and by dimension   10.616874    7.097950
  Stress total and by dimension    6.765643    5.581063


--------------------------------------------------------------------------------------------------------


    WAVPRE:  cpu time    0.00: real time    0.00
    FEWALD:  cpu time    0.00: real time    0.00
    GENKIN:  cpu time    0.00: real time    0.00
    ORTHCH:  cpu time    0.01: real time    0.01
     LOOP+:  cpu time    3.38: real time    3.56


----------------------------------------- Iteration   31(   1)  ---------------------------------------


