NAME                                    
   1.00000000000000     
     4.904166   -0.000033    0.000000
    -2.452111    4.247116    0.000000
     0.000000    0.000000    3.842748
   C 
     8
Direct
  0.999997  0.000003  0.073170
  0.333333  0.166667  0.073170
  0.499997  0.000003  0.073170
  0.833333  0.166667  0.073170
  0.999997  0.500003  0.073170
  0.333333  0.666667  0.073170
  0.499997  0.500003  0.073170
  0.833333  0.666667  0.073170
 
   40   40   32
 0.12562085380E+03 0.12899181804E+03 0.13320228933E+03 0.12897404682E+03 0.11543180640E+03
 0.98591402067E+02 0.83147937802E+02 0.71383205348E+02 0.63474281307E+02 0.58784196002E+02
 0.57182522377E+02 0.58789020112E+02 0.63479645734E+02 0.71385056377E+02 0.83147459128E+02
 0.98593209543E+02 0.11543746030E+03 0.12897963185E+03 0.13320421515E+03 0.12899129119E+03
 0.12562085691E+03 0.12899182151E+03 0.13320229353E+03 0.12897405208E+03 0.11543181291E+03
 0.98591409797E+02 0.83147946309E+02 0.71383213689E+02 0.63474288162E+02 0.58784200051E+02
 0.57182522802E+02 0.58789016909E+02 0.63479639771E+02 0.71385048997E+02 0.83147451594E+02
 0.98593202777E+02 0.11543745472E+03 0.12897962739E+03 0.13320421155E+03 0.12899128805E+03
 0.12899128728E+03 0.12899642954E+03 0.13533019065E+03 0.13844358362E+03 0.13207874748E+03
 0.11921824123E+03 0.10545094759E+03 0.93882954664E+02 0.85470959389E+02 0.79653281413E+02
 0.76430939962E+02 0.76430205788E+02 0.79654395825E+02 0.85476860056E+02 0.93889454561E+02
 0.10545427085E+03 0.11922172873E+03 0.13208420384E+03 0.13844399194E+03 0.13532268560E+03
 0.12899129119E+03 0.12899643357E+03 0.13533019534E+03 0.13844358953E+03 0.13207875509E+03
 0.11921825081E+03 0.10545095889E+03 0.93882966707E+02 0.85470970423E+02 0.79653289283E+02
 0.76430942988E+02 0.76430203370E+02 0.79654388580E+02 0.85476849631E+02 0.93889443166E+02
 0.10545426021E+03 0.11922171977E+03 0.13208419679E+03 0.13844398647E+03 0.13532268121E+03
 0.13320421008E+03 0.12991188960E+03 0.13320318453E+03 0.13844086763E+03 0.13828330617E+03
 0.13172291868E+03 0.12274868453E+03 0.11444007036E+03 0.10789605802E+03 0.10251615784E+03
 0.98337724122E+02 0.96640434557E+02 0.98332825557E+02 0.10251268518E+03 0.10789846548E+03
 0.11444587042E+03 0.12275345417E+03 0.13172654791E+03 0.13828735094E+03 0.13844399194E+03
 0.13320421515E+03 0.12991189434E+03 0.13320318973E+03 0.13844087408E+03 0.13828331466E+03
 0.13172292985E+03 0.12274869853E+03 0.11444008641E+03 0.10789607400E+03 0.10251617081E+03
 0.98337731421E+02 0.96640434761E+02 0.98332818669E+02 0.10251267266E+03 0.10789844996E+03
 0.11444585478E+03 0.12275344063E+03 0.13172653712E+03 0.13828734278E+03 0.13844398572E+03
 0.12897962515E+03 0.12514944134E+03 0.12514490517E+03 0.12897170728E+03 0.13208075024E+03
 0.13172616753E+03 0.12933346667E+03 0.12696587572E+03 0.12520192796E+03 0.12294674990E+03
 0.11933940505E+03 0.11606317142E+03 0.11606524433E+03 0.11934189531E+03 0.12294609483E+03
 0.12520170392E+03 0.12696885792E+03 0.12933592179E+03 0.13172654791E+03 0.13208420384E+03
 0.12897963185E+03 0.12514944704E+03 0.12514491092E+03 0.12897171410E+03 0.13208075919E+03
 0.13172617967E+03 0.12933348265E+03 0.12696589527E+03 0.12520194883E+03 0.12294676836E+03
 0.11933941743E+03 0.11606317576E+03 0.11606524029E+03 0.11934188321E+03 0.12294607663E+03
 0.12520168337E+03 0.12696883864E+03 0.12933590608E+03 0.13172653600E+03 0.13208419507E+03
 0.11543745143E+03 0.11156060672E+03 0.10977296436E+03 0.11156141772E+03 0.11543985745E+03
 0.11922319835E+03 0.12275128872E+03 0.12696572321E+03 0.13178095508E+03 0.13519059045E+03
 0.13439752272E+03 0.13001287834E+03 0.12740426682E+03 0.13002016435E+03 0.13440415816E+03
 0.13519239100E+03 0.13178187319E+03 0.12696885792E+03 0.12275345417E+03 0.11922172873E+03
 0.11543746030E+03 0.11156061371E+03 0.10977297072E+03 0.11156142476E+03 0.11543986640E+03
 0.11922321067E+03 0.12275130549E+03 0.12696574494E+03 0.13178097980E+03 0.13519061390E+03
 0.13439753969E+03 0.13001288643E+03 0.12740426692E+03 0.13002015643E+03 0.13440414140E+03
 0.13519236772E+03 0.13178184866E+03 0.12696883636E+03 0.12275343755E+03 0.11922171656E+03
 0.98593197924E+02 0.93322112632E+02 0.90151333431E+02 0.90154694246E+02 0.93327168170E+02
 0.98592720360E+02 0.10544927208E+03 0.11444199593E+03 0.12519959593E+03 0.13518989791E+03
 0.13981712195E+03 0.13654616363E+03 0.13076612216E+03 0.13076411923E+03 0.13654370386E+03
 0.13981813521E+03 0.13519239100E+03 0.12520170392E+03 0.11444587042E+03 0.10545427085E+03
 0.98593209543E+02 0.93322121222E+02 0.90151340575E+02 0.90154701406E+02 0.93327176796E+02
 0.98592732044E+02 0.10544928837E+03 0.11444201798E+03 0.12519962267E+03 0.13518992524E+03
 0.13981714300E+03 0.13654617428E+03 0.13076612486E+03 0.13076411664E+03 0.13654369332E+03
 0.13981811427E+03 0.13519236377E+03 0.12520167727E+03 0.11444584847E+03 0.10545425464E+03
 0.83147444436E+02 0.75724293908E+02 0.71084406051E+02 0.69431763977E+02 0.71082845291E+02
 0.75719764469E+02 0.83142735251E+02 0.93888612599E+02 0.10789915347E+03 0.12294384051E+03
 0.13440223578E+03 0.13654827399E+03 0.13074266735E+03 0.12676361572E+03 0.13073541840E+03
 0.13654370386E+03 0.13440415816E+03 0.12294609483E+03 0.10789846548E+03 0.93889454561E+02
 0.83147459128E+02 0.75724304404E+02 0.71084414161E+02 0.69431771289E+02 0.71082853411E+02
 0.75719774984E+02 0.83142749969E+02 0.93888633058E+02 0.10789917991E+03 0.12294386996E+03
 0.13440226112E+03 0.13654828814E+03 0.13074267136E+03 0.12676361573E+03 0.13073541444E+03
 0.13654368974E+03 0.13440413287E+03 0.12294606542E+03 0.10789843908E+03 0.93889434135E+02
 0.71385038812E+02 0.61450759105E+02 0.55174952940E+02 0.52039061171E+02 0.52036658909E+02
 0.55171101813E+02 0.61450686404E+02 0.71388275910E+02 0.85478444749E+02 0.10251100024E+03
 0.11933943416E+03 0.13001753894E+03 0.13076061502E+03 0.12676168462E+03 0.12676361572E+03
 0.13076411923E+03 0.13002016435E+03 0.11934189531E+03 0.10251268518E+03 0.85476860056E+02
 0.71385056377E+02 0.61450771618E+02 0.55174962104E+02 0.52039068746E+02 0.52036666479E+02
 0.55171110972E+02 0.61450698904E+02 0.71388293463E+02 0.85478468634E+02 0.10251102906E+03
 0.11933946274E+03 0.13001755901E+03 0.13076062292E+03 0.12676168582E+03 0.12676361450E+03
 0.13076411131E+03 0.13002014428E+03 0.11934186671E+03 0.10251265634E+03 0.85476836151E+02
 0.63479626082E+02 0.51489091204E+02 0.43618996299E+02 0.39135154377E+02 0.37654724390E+02
 0.39135779725E+02 0.43622027156E+02 0.51491426691E+02 0.63476545005E+02 0.79649061056E+02
 0.98332244179E+02 0.11606755407E+03 0.12740193073E+03 0.13076061502E+03 0.13074266735E+03
 0.13076612216E+03 0.12740426682E+03 0.11606524433E+03 0.98332825557E+02 0.79654395825E+02
 0.63479645734E+02 0.51489105404E+02 0.43619006476E+02 0.39135162268E+02 0.37654731495E+02
 0.39135787596E+02 0.43622037294E+02 0.51491440835E+02 0.63476564589E+02 0.79649086415E+02
 0.98332272625E+02 0.11606757922E+03 0.12740194594E+03 0.13076062026E+03 0.13074266731E+03
 0.13076611683E+03 0.12740425152E+03 0.11606521909E+03 0.98332797038E+02 0.79654370389E+02
 0.58788999806E+02 0.45290525294E+02 0.36093659051E+02 0.30452764431E+02 0.27740568586E+02
 0.27741695439E+02 0.30454123316E+02 0.36091795738E+02 0.45285320823E+02 0.58784248415E+02
 0.76429036724E+02 0.96642750907E+02 0.11606755407E+03 0.13001753894E+03 0.13654827399E+03
 0.13654616363E+03 0.13001287834E+03 0.11606317142E+03 0.96640434557E+02 0.76430205788E+02
 0.58789020112E+02 0.45290540405E+02 0.36093669959E+02 0.30452772557E+02 0.27740575353E+02
 0.27741702190E+02 0.30454131381E+02 0.36091806557E+02 0.45285335812E+02 0.58784268588E+02
 0.76429061317E+02 0.96642776563E+02 0.11606757497E+03 0.13001755089E+03 0.13654827743E+03
 0.13654616004E+03 0.13001286623E+03 0.11606315034E+03 0.96640408760E+02 0.76430181034E+02
 0.57182503164E+02 0.42256012261E+02 0.31838798994E+02 0.25155167116E+02 0.21414188364E+02
 0.20200711053E+02 0.21413736945E+02 0.25152394367E+02 0.31836445561E+02 0.42258537703E+02
 0.57186508459E+02 0.76429036724E+02 0.98332244179E+02 0.11933943416E+03 0.13440223578E+03
 0.13981712195E+03 0.13439752272E+03 0.11933940505E+03 0.98337724122E+02 0.76430939962E+02
 0.57182522377E+02 0.42256027225E+02 0.31838810064E+02 0.25155175286E+02 0.21414194822E+02
 0.20200716919E+02 0.21413743337E+02 0.25152402408E+02 0.31836456456E+02 0.42258552447E+02
 0.57186527445E+02 0.76429058489E+02 0.98332265372E+02 0.11933945035E+03 0.13440224408E+03
 0.13981712181E+03 0.13439751416E+03 0.11933938862E+03 0.98337702691E+02 0.76430917931E+02
 0.58784179389E+02 0.42254912179E+02 0.30445226129E+02 0.22620982152E+02 0.17891802856E+02
 0.15654978809E+02 0.15654444754E+02 0.17891077186E+02 0.22621973404E+02 0.30448691935E+02
 0.42258537703E+02 0.58784248415E+02 0.79649061056E+02 0.10251100024E+03 0.12294384051E+03
 0.13518989791E+03 0.13519059045E+03 0.12294674990E+03 0.10251615784E+03 0.79653281413E+02
 0.58784196002E+02 0.42254925892E+02 0.30445236668E+02 0.22620990056E+02 0.17891808945E+02
 0.15654983982E+02 0.15654449865E+02 0.17891083127E+02 0.22621981052E+02 0.30448702175E+02
 0.42258551042E+02 0.58784264674E+02 0.79649078536E+02 0.10251101599E+03 0.12294385131E+03
 0.13518990162E+03 0.13519058637E+03 0.12294673872E+03 0.10251614170E+03 0.79653263533E+02
 0.63474268142E+02 0.45290031031E+02 0.31840348568E+02 0.22621258775E+02 0.16754557158E+02
 0.13517220525E+02 0.12483148466E+02 0.13517399699E+02 0.16756245225E+02 0.22621973404E+02
 0.31836445561E+02 0.45285320823E+02 0.63476545005E+02 0.85478444749E+02 0.10789915347E+03
 0.12519959593E+03 0.13178095508E+03 0.12520192796E+03 0.10789605802E+03 0.85470959389E+02
 0.63474281307E+02 0.45290042637E+02 0.31840357969E+02 0.22621266055E+02 0.16754562786E+02
 0.13517225106E+02 0.12483152641E+02 0.13517404108E+02 0.16756250532E+02 0.22621980237E+02
 0.31836454449E+02 0.45285331857E+02 0.63476557591E+02 0.85478457366E+02 0.10789916368E+03
 0.12519960155E+03 0.13178095482E+03 0.12520192180E+03 0.10789604724E+03 0.85470946236E+02
 0.71383195728E+02 0.51491251981E+02 0.36094488768E+02 0.25153644936E+02 0.17890408816E+02
 0.13516751124E+02 0.11473657439E+02 0.11473759277E+02 0.13517399699E+02 0.17891077186E+02
 0.25152394367E+02 0.36091795738E+02 0.51491426691E+02 0.71388275910E+02 0.93888612599E+02
 0.11444199593E+03 0.12696572321E+03 0.12696587572E+03 0.11444007036E+03 0.93882954664E+02
 0.71383205348E+02 0.51491261123E+02 0.36094496651E+02 0.25153651340E+02 0.17890413883E+02
 0.13516755193E+02 0.11473660920E+02 0.11473762625E+02 0.13517403369E+02 0.17891081650E+02
 0.25152400009E+02 0.36091802794E+02 0.51491434980E+02 0.71388284660E+02 0.93888620549E+02
 0.11444200147E+03 0.12696572497E+03 0.12696587319E+03 0.11444006406E+03 0.93882945907E+02
 0.83147931207E+02 0.61450862732E+02 0.43615352001E+02 0.30447785042E+02 0.21412109535E+02
 0.15654931279E+02 0.12483152616E+02 0.11473657439E+02 0.12483148466E+02 0.15654444754E+02
 0.21413736945E+02 0.30454123316E+02 0.43622027156E+02 0.61450686404E+02 0.83142735251E+02
 0.10544927208E+03 0.12275128872E+03 0.12933346667E+03 0.12274868453E+03 0.10545094759E+03
 0.83147937802E+02 0.61450869544E+02 0.43615358318E+02 0.30447790487E+02 0.21412114029E+02
 0.15654934920E+02 0.12483155619E+02 0.11473660067E+02 0.12483151035E+02 0.15654447583E+02
 0.21413740359E+02 0.30454127515E+02 0.43622032172E+02 0.61450691966E+02 0.83142740640E+02
 0.10544927635E+03 0.12275129090E+03 0.12933346614E+03 0.12274868127E+03 0.10545094219E+03
 0.98591397661E+02 0.75718749723E+02 0.55166381609E+02 0.39130674441E+02 0.27740471699E+02
 0.20201676755E+02 0.15654931279E+02 0.13516751124E+02 0.13517220525E+02 0.15654978809E+02
 0.20200711053E+02 0.27741695439E+02 0.39135779725E+02 0.55171101813E+02 0.75719764469E+02
 0.98592720360E+02 0.11922319835E+03 0.13172616753E+03 0.13172291868E+03 0.11921824123E+03
 0.98591402067E+02 0.75718754690E+02 0.55166386592E+02 0.39130679056E+02 0.27740475728E+02
 0.20201680130E+02 0.15654934023E+02 0.13516753344E+02 0.13517222385E+02 0.15654980542E+02
 0.20200712899E+02 0.27741697635E+02 0.39135782380E+02 0.55171104846E+02 0.75719767618E+02
 0.98592723105E+02 0.11922320006E+03 0.13172616768E+03 0.13172291705E+03 0.11921823798E+03
 0.11543180332E+03 0.93315598850E+02 0.71076254868E+02 0.52037752155E+02 0.37657697773E+02
 0.27740471699E+02 0.21412109535E+02 0.17890408816E+02 0.16754557158E+02 0.17891802856E+02
 0.21414188364E+02 0.27740568586E+02 0.37654724390E+02 0.52036658909E+02 0.71082845291E+02
 0.93327168170E+02 0.11543985745E+03 0.13208075024E+03 0.13828330617E+03 0.13207874748E+03
 0.11543180640E+03 0.93315602590E+02 0.71076258930E+02 0.52037756223E+02 0.37657701591E+02
 0.27740475071E+02 0.21412112328E+02 0.17890410957E+02 0.16754558673E+02 0.17891803863E+02
 0.21414189085E+02 0.27740569253E+02 0.37654725221E+02 0.52036660013E+02 0.71082846570E+02
 0.93327169386E+02 0.11543985826E+03 0.13208075028E+03 0.13828330516E+03 0.13207874536E+03
 0.12897404438E+03 0.11155704851E+03 0.90148291894E+02 0.69429352816E+02 0.52037752155E+02
 0.39130674441E+02 0.30447785042E+02 0.25153644936E+02 0.22621258775E+02 0.22620982152E+02
 0.25155167116E+02 0.30452764431E+02 0.39135154377E+02 0.52039061171E+02 0.69431763977E+02
 0.90154694246E+02 0.11156141772E+03 0.12897170728E+03 0.13844086763E+03 0.13844358362E+03
 0.12897404682E+03 0.11155705161E+03 0.90148295492E+02 0.69429356713E+02 0.52037756116E+02
 0.39130678201E+02 0.30447788314E+02 0.25153647459E+02 0.22621260374E+02 0.22620982815E+02
 0.25155166996E+02 0.30452763837E+02 0.39135153624E+02 0.52039060508E+02 0.69431763553E+02
 0.90154694006E+02 0.11156141746E+03 0.12897170675E+03 0.13844086658E+03 0.13844358189E+03
 0.13320228701E+03 0.12514493120E+03 0.10977337169E+03 0.90148291894E+02 0.71076254868E+02
 0.55166381609E+02 0.43615352001E+02 0.36094488768E+02 0.31840348568E+02 0.30445226129E+02
 0.31838798994E+02 0.36093659051E+02 0.43618996299E+02 0.55174952940E+02 0.71084406051E+02
 0.90151333431E+02 0.10977296436E+03 0.12514490517E+03 0.13320318453E+03 0.13533019065E+03
 0.13320228933E+03 0.12514493412E+03 0.10977337523E+03 0.90148295994E+02 0.71076259372E+02
 0.55166386236E+02 0.43615356340E+02 0.36094492323E+02 0.31840350885E+02 0.30445226944E+02
 0.31838798359E+02 0.36093657290E+02 0.43618993932E+02 0.55174950474E+02 0.71084403801E+02
 0.90151331548E+02 0.10977296281E+03 0.12514490376E+03 0.13320318302E+03 0.13533018882E+03
 0.12899181547E+03 0.12990382044E+03 0.12514493120E+03 0.11155704851E+03 0.93315598850E+02
 0.75718749723E+02 0.61450862732E+02 0.51491251981E+02 0.45290031031E+02 0.42254912179E+02
 0.42256012261E+02 0.45290525294E+02 0.51489091204E+02 0.61450759105E+02 0.75724293908E+02
 0.93322112632E+02 0.11156060672E+03 0.12514944134E+03 0.12991188960E+03 0.12899642954E+03
 0.12899181804E+03 0.12990382353E+03 0.12514493498E+03 0.11155705310E+03 0.93315604252E+02
 0.75718755714E+02 0.61450868827E+02 0.51491257439E+02 0.45290035002E+02 0.42254913985E+02
 0.42256011645E+02 0.45290522566E+02 0.51489087062E+02 0.61450754400E+02 0.75724289396E+02
 0.93322108716E+02 0.11156060348E+03 0.12514943868E+03 0.12991188725E+03 0.12899642723E+03
 0.12562085070E+03 0.12899181547E+03 0.13320228701E+03 0.12897404438E+03 0.11543180332E+03
 0.98591397661E+02 0.83147931207E+02 0.71383195728E+02 0.63474268142E+02 0.58784179389E+02
 0.57182503164E+02 0.58788999806E+02 0.63479626082E+02 0.71385038812E+02 0.83147444436E+02
 0.98593197924E+02 0.11543745143E+03 0.12897962515E+03 0.13320421008E+03 0.12899128728E+03
 0.12562085380E+03 0.12899181893E+03 0.13320229120E+03 0.12897404964E+03 0.11543180983E+03
 0.98591405393E+02 0.83147939714E+02 0.71383204070E+02 0.63474274997E+02 0.58784183438E+02
 0.57182503590E+02 0.58788996603E+02 0.63479620121E+02 0.71385031432E+02 0.83147436902E+02
 0.98593191159E+02 0.11543744586E+03 0.12897962069E+03 0.13320420648E+03 0.12899128413E+03
 0.12899128413E+03 0.12899642723E+03 0.13533018882E+03 0.13844358189E+03 0.13207874536E+03
 0.11921823798E+03 0.10545094219E+03 0.93882945907E+02 0.85470946236E+02 0.79653263533E+02
 0.76430917931E+02 0.76430181034E+02 0.79654370389E+02 0.85476836151E+02 0.93889434135E+02
 0.10545425464E+03 0.11922171656E+03 0.13208419507E+03 0.13844398572E+03 0.13532268121E+03
 0.12899128805E+03 0.12899643125E+03 0.13533019350E+03 0.13844358780E+03 0.13207875298E+03
 0.11921824756E+03 0.10545095349E+03 0.93882957950E+02 0.85470957271E+02 0.79653271403E+02
 0.76430920957E+02 0.76430178616E+02 0.79654363144E+02 0.85476825725E+02 0.93889422739E+02
 0.10545424401E+03 0.11922170759E+03 0.13208418802E+03 0.13844398025E+03 0.13532267681E+03
 0.13320420648E+03 0.12991188725E+03 0.13320318302E+03 0.13844086658E+03 0.13828330516E+03
 0.13172291705E+03 0.12274868127E+03 0.11444006406E+03 0.10789604724E+03 0.10251614170E+03
 0.98337702691E+02 0.96640408760E+02 0.98332797038E+02 0.10251265634E+03 0.10789843908E+03
 0.11444584847E+03 0.12275343755E+03 0.13172653600E+03 0.13828734278E+03 0.13844398647E+03
 0.13320421155E+03 0.12991189200E+03 0.13320318822E+03 0.13844087304E+03 0.13828331365E+03
 0.13172292823E+03 0.12274869527E+03 0.11444008011E+03 0.10789606322E+03 0.10251615467E+03
 0.98337709990E+02 0.96640408965E+02 0.98332790151E+02 0.10251264382E+03 0.10789842356E+03
 0.11444583283E+03 0.12275342401E+03 0.13172652522E+03 0.13828733462E+03 0.13844398025E+03
 0.12897962069E+03 0.12514943868E+03 0.12514490376E+03 0.12897170675E+03 0.13208075028E+03
 0.13172616768E+03 0.12933346614E+03 0.12696587319E+03 0.12520192180E+03 0.12294673872E+03
 0.11933938862E+03 0.11606315034E+03 0.11606521909E+03 0.11934186671E+03 0.12294606542E+03
 0.12520167727E+03 0.12696883636E+03 0.12933590608E+03 0.13172653712E+03 0.13208419679E+03
 0.12897962739E+03 0.12514944438E+03 0.12514490950E+03 0.12897171356E+03 0.13208075922E+03
 0.13172617981E+03 0.12933348212E+03 0.12696589274E+03 0.12520194266E+03 0.12294675718E+03
 0.11933940099E+03 0.11606315468E+03 0.11606521504E+03 0.11934185461E+03 0.12294604722E+03
 0.12520165672E+03 0.12696881708E+03 0.12933589039E+03 0.13172652522E+03 0.13208418802E+03
 0.11543744586E+03 0.11156060348E+03 0.10977296281E+03 0.11156141746E+03 0.11543985826E+03
 0.11922320006E+03 0.12275129090E+03 0.12696572497E+03 0.13178095482E+03 0.13519058637E+03
 0.13439751416E+03 0.13001286623E+03 0.12740425152E+03 0.13002014428E+03 0.13440413287E+03
 0.13519236377E+03 0.13178184866E+03 0.12696883864E+03 0.12275344063E+03 0.11922171977E+03
 0.11543745472E+03 0.11156061047E+03 0.10977296917E+03 0.11156142449E+03 0.11543986722E+03
 0.11922321236E+03 0.12275130767E+03 0.12696574669E+03 0.13178097954E+03 0.13519060982E+03
 0.13439753113E+03 0.13001287432E+03 0.12740425162E+03 0.13002013635E+03 0.13440411610E+03
 0.13519234049E+03 0.13178182413E+03 0.12696881708E+03 0.12275342401E+03 0.11922170759E+03
 0.98593191159E+02 0.93322108716E+02 0.90151331548E+02 0.90154694006E+02 0.93327169386E+02
 0.98592723105E+02 0.10544927635E+03 0.11444200147E+03 0.12519960155E+03 0.13518990162E+03
 0.13981712181E+03 0.13654616004E+03 0.13076611683E+03 0.13076411131E+03 0.13654368974E+03
 0.13981811427E+03 0.13519236772E+03 0.12520168337E+03 0.11444585478E+03 0.10545426021E+03
 0.98593202777E+02 0.93322117306E+02 0.90151338692E+02 0.90154701166E+02 0.93327178012E+02
 0.98592734788E+02 0.10544929263E+03 0.11444202351E+03 0.12519962830E+03 0.13518992896E+03
 0.13981714287E+03 0.13654617069E+03 0.13076611953E+03 0.13076410872E+03 0.13654367920E+03
 0.13981809332E+03 0.13519234049E+03 0.12520165672E+03 0.11444583283E+03 0.10545424401E+03
 0.83147436902E+02 0.75724289396E+02 0.71084403801E+02 0.69431763553E+02 0.71082846570E+02
 0.75719767618E+02 0.83142740640E+02 0.93888620549E+02 0.10789916368E+03 0.12294385131E+03
 0.13440224408E+03 0.13654827743E+03 0.13074266731E+03 0.12676361450E+03 0.13073541444E+03
 0.13654369332E+03 0.13440414140E+03 0.12294607663E+03 0.10789844996E+03 0.93889443166E+02
 0.83147451594E+02 0.75724299891E+02 0.71084411911E+02 0.69431770864E+02 0.71082854689E+02
 0.75719778133E+02 0.83142755358E+02 0.93888641008E+02 0.10789919012E+03 0.12294388077E+03
 0.13440226942E+03 0.13654829159E+03 0.13074267132E+03 0.12676361452E+03 0.13073541047E+03
 0.13654367920E+03 0.13440411610E+03 0.12294604722E+03 0.10789842356E+03 0.93889422739E+02
 0.71385031432E+02 0.61450754400E+02 0.55174950474E+02 0.52039060508E+02 0.52036660013E+02
 0.55171104846E+02 0.61450691966E+02 0.71388284660E+02 0.85478457366E+02 0.10251101599E+03
 0.11933945035E+03 0.13001755089E+03 0.13076062026E+03 0.12676168582E+03 0.12676361573E+03
 0.13076411664E+03 0.13002015643E+03 0.11934188321E+03 0.10251267266E+03 0.85476849631E+02
 0.71385048997E+02 0.61450766913E+02 0.55174959638E+02 0.52039068083E+02 0.52036667585E+02
 0.55171114005E+02 0.61450704466E+02 0.71388302213E+02 0.85478481251E+02 0.10251104480E+03
 0.11933947893E+03 0.13001757096E+03 0.13076062816E+03 0.12676168701E+03 0.12676361452E+03
 0.13076410872E+03 0.13002013635E+03 0.11934185461E+03 0.10251264382E+03 0.85476825725E+02
 0.63479620121E+02 0.51489087062E+02 0.43618993932E+02 0.39135153624E+02 0.37654725221E+02
 0.39135782380E+02 0.43622032172E+02 0.51491434980E+02 0.63476557591E+02 0.79649078536E+02
 0.98332265372E+02 0.11606757497E+03 0.12740194594E+03 0.13076062292E+03 0.13074267136E+03
 0.13076612486E+03 0.12740426692E+03 0.11606524029E+03 0.98332818669E+02 0.79654388580E+02
 0.63479639771E+02 0.51489101262E+02 0.43619004108E+02 0.39135161514E+02 0.37654732326E+02
 0.39135790251E+02 0.43622042310E+02 0.51491449125E+02 0.63476577174E+02 0.79649103896E+02
 0.98332293818E+02 0.11606760012E+03 0.12740196117E+03 0.13076062816E+03 0.13074267132E+03
 0.13076611953E+03 0.12740425162E+03 0.11606521504E+03 0.98332790151E+02 0.79654363144E+02
 0.58788996603E+02 0.45290522566E+02 0.36093657290E+02 0.30452763837E+02 0.27740569253E+02
 0.27741697635E+02 0.30454127515E+02 0.36091802794E+02 0.45285331857E+02 0.58784264674E+02
 0.76429058489E+02 0.96642776563E+02 0.11606757922E+03 0.13001755901E+03 0.13654828814E+03
 0.13654617428E+03 0.13001288643E+03 0.11606317576E+03 0.96640434761E+02 0.76430203370E+02
 0.58789016909E+02 0.45290537677E+02 0.36093668198E+02 0.30452771963E+02 0.27740576021E+02
 0.27741704385E+02 0.30454135581E+02 0.36091813613E+02 0.45285346845E+02 0.58784284847E+02
 0.76429083082E+02 0.96642802219E+02 0.11606760012E+03 0.13001757096E+03 0.13654829159E+03
 0.13654617069E+03 0.13001287432E+03 0.11606315468E+03 0.96640408965E+02 0.76430178616E+02
 0.57182503590E+02 0.42256011645E+02 0.31838798359E+02 0.25155166996E+02 0.21414189085E+02
 0.20200712899E+02 0.21413740359E+02 0.25152400009E+02 0.31836454449E+02 0.42258551042E+02
 0.57186527445E+02 0.76429061317E+02 0.98332272625E+02 0.11933946274E+03 0.13440226112E+03
 0.13981714300E+03 0.13439753969E+03 0.11933941743E+03 0.98337731421E+02 0.76430942988E+02
 0.57182522802E+02 0.42256026609E+02 0.31838809430E+02 0.25155175167E+02 0.21414195543E+02
 0.20200718764E+02 0.21413746751E+02 0.25152408050E+02 0.31836465344E+02 0.42258565785E+02
 0.57186546433E+02 0.76429083082E+02 0.98332293818E+02 0.11933947893E+03 0.13440226942E+03
 0.13981714287E+03 0.13439753113E+03 0.11933940099E+03 0.98337709990E+02 0.76430920957E+02
 0.58784183438E+02 0.42254913985E+02 0.30445226944E+02 0.22620982815E+02 0.17891803863E+02
 0.15654980542E+02 0.15654447583E+02 0.17891081650E+02 0.22621980237E+02 0.30448702175E+02
 0.42258552447E+02 0.58784268588E+02 0.79649086415E+02 0.10251102906E+03 0.12294386996E+03
 0.13518992524E+03 0.13519061390E+03 0.12294676836E+03 0.10251617081E+03 0.79653289283E+02
 0.58784200051E+02 0.42254927698E+02 0.30445237482E+02 0.22620990719E+02 0.17891809953E+02
 0.15654985715E+02 0.15654452694E+02 0.17891087591E+02 0.22621987886E+02 0.30448712414E+02
 0.42258565785E+02 0.58784284847E+02 0.79649103896E+02 0.10251104480E+03 0.12294388077E+03
 0.13518992896E+03 0.13519060982E+03 0.12294675718E+03 0.10251615467E+03 0.79653271403E+02
 0.63474274997E+02 0.45290035002E+02 0.31840350885E+02 0.22621260374E+02 0.16754558673E+02
 0.13517222385E+02 0.12483151035E+02 0.13517403369E+02 0.16756250532E+02 0.22621981052E+02
 0.31836456456E+02 0.45285335812E+02 0.63476564589E+02 0.85478468634E+02 0.10789917991E+03
 0.12519962267E+03 0.13178097980E+03 0.12520194883E+03 0.10789607400E+03 0.85470970423E+02
 0.63474288162E+02 0.45290046609E+02 0.31840360286E+02 0.22621267654E+02 0.16754564301E+02
 0.13517226966E+02 0.12483155210E+02 0.13517407778E+02 0.16756255840E+02 0.22621987886E+02
 0.31836465344E+02 0.45285346845E+02 0.63476577174E+02 0.85478481251E+02 0.10789919012E+03
 0.12519962830E+03 0.13178097954E+03 0.12520194266E+03 0.10789606322E+03 0.85470957271E+02
 0.71383204070E+02 0.51491257439E+02 0.36094492323E+02 0.25153647459E+02 0.17890410957E+02
 0.13516753344E+02 0.11473660067E+02 0.11473762625E+02 0.13517404108E+02 0.17891083127E+02
 0.25152402408E+02 0.36091806557E+02 0.51491440835E+02 0.71388293463E+02 0.93888633058E+02
 0.11444201798E+03 0.12696574494E+03 0.12696589527E+03 0.11444008641E+03 0.93882966707E+02
 0.71383213689E+02 0.51491266581E+02 0.36094500206E+02 0.25153653863E+02 0.17890416024E+02
 0.13516757413E+02 0.11473663548E+02 0.11473765972E+02 0.13517407778E+02 0.17891087591E+02
 0.25152408050E+02 0.36091813613E+02 0.51491449125E+02 0.71388302213E+02 0.93888641008E+02
 0.11444202351E+03 0.12696574669E+03 0.12696589274E+03 0.11444008011E+03 0.93882957950E+02
 0.83147939714E+02 0.61450868827E+02 0.43615356340E+02 0.30447788314E+02 0.21412112328E+02
 0.15654934023E+02 0.12483155619E+02 0.11473660920E+02 0.12483152641E+02 0.15654449865E+02
 0.21413743337E+02 0.30454131381E+02 0.43622037294E+02 0.61450698904E+02 0.83142749969E+02
 0.10544928837E+03 0.12275130549E+03 0.12933348265E+03 0.12274869853E+03 0.10545095889E+03
 0.83147946309E+02 0.61450875639E+02 0.43615362657E+02 0.30447793760E+02 0.21412116821E+02
 0.15654937664E+02 0.12483158622E+02 0.11473663548E+02 0.12483155210E+02 0.15654452694E+02
 0.21413746751E+02 0.30454135581E+02 0.43622042310E+02 0.61450704466E+02 0.83142755358E+02
 0.10544929263E+03 0.12275130767E+03 0.12933348212E+03 0.12274869527E+03 0.10545095349E+03
 0.98591405393E+02 0.75718755714E+02 0.55166386236E+02 0.39130678201E+02 0.27740475071E+02
 0.20201680130E+02 0.15654934920E+02 0.13516755193E+02 0.13517225106E+02 0.15654983982E+02
 0.20200716919E+02 0.27741702190E+02 0.39135787596E+02 0.55171110972E+02 0.75719774984E+02
 0.98592732044E+02 0.11922321067E+03 0.13172617967E+03 0.13172292985E+03 0.11921825081E+03
 0.98591409797E+02 0.75718760681E+02 0.55166391219E+02 0.39130682815E+02 0.27740479100E+02
 0.20201683506E+02 0.15654937664E+02 0.13516757413E+02 0.13517226966E+02 0.15654985715E+02
 0.20200718764E+02 0.27741704385E+02 0.39135790251E+02 0.55171114005E+02 0.75719778133E+02
 0.98592734788E+02 0.11922321236E+03 0.13172617981E+03 0.13172292823E+03 0.11921824756E+03
 0.11543180983E+03 0.93315604252E+02 0.71076259372E+02 0.52037756116E+02 0.37657701591E+02
 0.27740475728E+02 0.21412114029E+02 0.17890413883E+02 0.16754562786E+02 0.17891808945E+02
 0.21414194822E+02 0.27740575353E+02 0.37654731495E+02 0.52036666479E+02 0.71082853411E+02
 0.93327176796E+02 0.11543986640E+03 0.13208075919E+03 0.13828331466E+03 0.13207875509E+03
 0.11543181291E+03 0.93315607991E+02 0.71076263435E+02 0.52037760183E+02 0.37657705409E+02
 0.27740479100E+02 0.21412116821E+02 0.17890416024E+02 0.16754564301E+02 0.17891809953E+02
 0.21414195543E+02 0.27740576021E+02 0.37654732326E+02 0.52036667585E+02 0.71082854689E+02
 0.93327178012E+02 0.11543986722E+03 0.13208075922E+03 0.13828331365E+03 0.13207875298E+03
 0.12897404964E+03 0.11155705310E+03 0.90148295994E+02 0.69429356713E+02 0.52037756223E+02
 0.39130679056E+02 0.30447790487E+02 0.25153651340E+02 0.22621266055E+02 0.22620990056E+02
 0.25155175286E+02 0.30452772557E+02 0.39135162268E+02 0.52039068746E+02 0.69431771289E+02
 0.90154701406E+02 0.11156142476E+03 0.12897171410E+03 0.13844087408E+03 0.13844358953E+03
 0.12897405208E+03 0.11155705621E+03 0.90148299592E+02 0.69429360611E+02 0.52037760183E+02
 0.39130682815E+02 0.30447793760E+02 0.25153653863E+02 0.22621267654E+02 0.22620990719E+02
 0.25155175167E+02 0.30452771963E+02 0.39135161514E+02 0.52039068083E+02 0.69431770864E+02
 0.90154701166E+02 0.11156142449E+03 0.12897171356E+03 0.13844087304E+03 0.13844358780E+03
 0.13320229120E+03 0.12514493498E+03 0.10977337523E+03 0.90148295492E+02 0.71076258930E+02
 0.55166386592E+02 0.43615358318E+02 0.36094496651E+02 0.31840357969E+02 0.30445236668E+02
 0.31838810064E+02 0.36093669959E+02 0.43619006476E+02 0.55174962104E+02 0.71084414161E+02
 0.90151340575E+02 0.10977297072E+03 0.12514491092E+03 0.13320318973E+03 0.13533019534E+03
 0.13320229353E+03 0.12514493791E+03 0.10977337877E+03 0.90148299592E+02 0.71076263435E+02
 0.55166391219E+02 0.43615362657E+02 0.36094500206E+02 0.31840360286E+02 0.30445237482E+02
 0.31838809430E+02 0.36093668198E+02 0.43619004108E+02 0.55174959638E+02 0.71084411911E+02
 0.90151338692E+02 0.10977296917E+03 0.12514490950E+03 0.13320318822E+03 0.13533019350E+03
 0.12899181893E+03 0.12990382353E+03 0.12514493412E+03 0.11155705161E+03 0.93315602590E+02
 0.75718754690E+02 0.61450869544E+02 0.51491261123E+02 0.45290042637E+02 0.42254925892E+02
 0.42256027225E+02 0.45290540405E+02 0.51489105404E+02 0.61450771618E+02 0.75724304404E+02
 0.93322121222E+02 0.11156061371E+03 0.12514944704E+03 0.12991189434E+03 0.12899643357E+03
 0.12899182151E+03 0.12990382661E+03 0.12514493791E+03 0.11155705621E+03 0.93315607991E+02
 0.75718760681E+02 0.61450875639E+02 0.51491266581E+02 0.45290046609E+02 0.42254927698E+02
 0.42256026609E+02 0.45290537677E+02 0.51489101262E+02 0.61450766913E+02 0.75724299891E+02
 0.93322117306E+02 0.11156061047E+03 0.12514944438E+03 0.12991189200E+03 0.12899643125E+03
 0.12006214839E+03 0.12836889560E+03 0.14269104327E+03 0.14550581943E+03 0.13297502236E+03
 0.11385110581E+03 0.95743479225E+02 0.81621595806E+02 0.72087225835E+02 0.66436594285E+02
 0.64504474934E+02 0.66443473245E+02 0.72094615424E+02 0.81623524223E+02 0.95741653813E+02
 0.11385238932E+03 0.13298181233E+03 0.14551215306E+03 0.14269183401E+03 0.12836668723E+03