   8   8   1   0
  0.1000483E+02  0.4904166E-09  0.4904166E-09  0.3842748E-09  0.5000000E-15
  1.000000000000000E-004
  CAR 
 NAME                                    
     15.83883631    -17.14587527  301      2.42848951      1.00000000
    -17.146  0.0000E+00  0.0000E+00
    -17.036  0.0000E+00  0.0000E+00
    -16.926  0.0000E+00  0.0000E+00
    -16.816  0.0000E+00  0.0000E+00
    -16.706  0.0000E+00  0.0000E+00
    -16.596  0.0000E+00  0.0000E+00
    -16.486  0.0000E+00  0.0000E+00
    -16.376  0.0000E+00  0.0000E+00
    -16.266  0.0000E+00  0.0000E+00
    -16.156  0.4157E-12  0.4571E-13
    -16.046  0.1253E-07  0.1378E-08
    -15.936  0.3702E-04  0.4072E-05
    -15.826  0.1144E-01  0.1262E-02
    -15.717  0.4261E+00  0.4811E-01
    -15.607  0.2516E+01  0.3248E+00
    -15.497  0.3390E+01  0.6975E+00
    -15.387  0.1609E+01  0.8745E+00
    -15.277  0.7866E+00  0.9610E+00
    -15.167  0.6260E+00  0.1030E+01
    -15.057  0.5304E+00  0.1088E+01
    -14.947  0.4920E+00  0.1142E+01
    -14.837  0.4415E+00  0.1191E+01
    -14.727  0.3994E+00  0.1235E+01
    -14.617  0.4284E+00  0.1282E+01
    -14.507  0.2957E+00  0.1314E+01
    -14.397  0.4169E+00  0.1360E+01
    -14.287  0.4430E+00  0.1409E+01
    -14.177  0.2109E+01  0.1641E+01
    -14.067  0.5481E+01  0.2243E+01
    -13.957  0.2958E+01  0.2569E+01
    -13.847  0.4340E+00  0.2616E+01
    -13.737  0.4217E+00  0.2663E+01
    -13.628  0.2957E+00  0.2695E+01
    -13.518  0.9512E-01  0.2706E+01
    -13.408  0.3151E+00  0.2740E+01
    -13.298  0.4109E+00  0.2785E+01
    -13.188  0.1292E+00  0.2800E+01
    -13.078  0.1002E+00  0.2811E+01
    -12.968  0.3865E+00  0.2853E+01
    -12.858  0.3538E+00  0.2892E+01
    -12.748  0.7275E-01  0.2900E+01
    -12.638  0.8611E-01  0.2910E+01
    -12.528  0.3789E+00  0.2951E+01
    -12.418  0.3662E+00  0.2991E+01
    -12.308  0.7572E-01  0.3000E+01
    -12.198  0.3773E-01  0.3004E+01
    -12.088  0.2825E+00  0.3035E+01
    -11.978  0.4367E+00  0.3083E+01
    -11.868  0.1461E+00  0.3099E+01
    -11.758  0.1298E-01  0.3101E+01
    -11.648  0.1108E+00  0.3113E+01
    -11.538  0.4182E+00  0.3159E+01
    -11.429  0.4410E+00  0.3207E+01
    -11.319  0.2295E+01  0.3460E+01
    -11.209  0.7295E+01  0.4262E+01
    -11.099  0.5538E+01  0.4871E+01
    -10.989  0.2595E+01  0.5156E+01
    -10.879  0.1693E+01  0.5342E+01
    -10.769  0.1293E+01  0.5484E+01
    -10.659  0.1239E+01  0.5620E+01
    -10.549  0.1459E+01  0.5781E+01
    -10.439  0.1705E+01  0.5968E+01
    -10.329  0.3877E+01  0.6394E+01
    -10.219  0.9243E+01  0.7411E+01
    -10.109  0.4911E+01  0.7951E+01
     -9.999  0.4436E+00  0.7999E+01
     -9.889  0.5514E-02  0.8000E+01
     -9.779  0.7819E-05  0.8000E+01
     -9.669  0.2630E-06  0.8000E+01
     -9.559  0.4868E-03  0.8000E+01
     -9.449  0.9738E-01  0.8011E+01
     -9.339  0.2405E+01  0.8275E+01
     -9.230  0.8837E+01  0.9247E+01
     -9.120  0.5869E+01  0.9892E+01
     -9.010  0.1285E+01  0.1003E+02
     -8.900  0.1331E+01  0.1018E+02
     -8.790  0.9613E+00  0.1029E+02
     -8.680  0.2774E+00  0.1032E+02
     -8.570  0.8016E+00  0.1040E+02
     -8.460  0.8545E+00  0.1050E+02
     -8.350  0.5989E+00  0.1056E+02
     -8.240  0.8131E+00  0.1065E+02
     -8.130  0.9940E+00  0.1076E+02
     -8.020  0.3260E+00  0.1080E+02
     -7.910  0.1312E+00  0.1081E+02
     -7.800  0.8535E+00  0.1091E+02
     -7.690  0.1270E+01  0.1105E+02
     -7.580  0.4579E+00  0.1110E+02
     -7.470  0.2252E+00  0.1112E+02
     -7.360  0.8751E+00  0.1122E+02
     -7.250  0.6682E+00  0.1129E+02
     -7.141  0.1580E+00  0.1131E+02
     -7.031  0.7358E+00  0.1139E+02
     -6.921  0.1378E+01  0.1154E+02
     -6.811  0.5171E+00  0.1160E+02
     -6.701  0.3058E+00  0.1163E+02
     -6.591  0.1489E+01  0.1180E+02
     -6.481  0.4886E+01  0.1233E+02
     -6.371  0.5351E+01  0.1292E+02
     -6.261  0.1393E+01  0.1307E+02
     -6.151  0.2257E+00  0.1310E+02
     -6.041  0.1274E-01  0.1310E+02
     -5.931  0.9928E-04  0.1310E+02
     -5.821  0.5371E-03  0.1310E+02
     -5.711  0.3680E-01  0.1310E+02
     -5.601  0.3293E+00  0.1314E+02
     -5.491  0.4461E+00  0.1319E+02
     -5.381  0.9398E-01  0.1320E+02
     -5.271  0.2756E-02  0.1320E+02
     -5.161  0.1260E-01  0.1320E+02
     -5.051  0.6924E+00  0.1328E+02
     -4.942  0.4890E+01  0.1382E+02
     -4.832  0.5606E+01  0.1443E+02
     -4.722  0.2028E+01  0.1465E+02
     -4.612  0.4061E+00  0.1470E+02
     -4.502  0.2805E+00  0.1473E+02
     -4.392  0.1035E+01  0.1484E+02
     -4.282  0.1238E+01  0.1498E+02
     -4.172  0.1577E+01  0.1515E+02
     -4.062  0.1825E+01  0.1535E+02
     -3.952  0.1965E+01  0.1557E+02
     -3.842  0.1035E+01  0.1568E+02
     -3.732  0.5743E+00  0.1575E+02
     -3.622  0.9903E+00  0.1586E+02
     -3.512  0.1614E+01  0.1603E+02
     -3.402  0.3371E+01  0.1640E+02
     -3.292  0.7305E+01  0.1721E+02
     -3.182  0.4317E+01  0.1768E+02
     -3.072  0.1662E+01  0.1786E+02
     -2.962  0.5817E+00  0.1793E+02
     -2.853  0.1146E+01  0.1805E+02
     -2.743  0.1412E+01  0.1821E+02
     -2.633  0.1095E+01  0.1833E+02
     -2.523  0.2526E+01  0.1861E+02
     -2.413  0.5922E+01  0.1926E+02
     -2.303  0.1208E+02  0.2059E+02
     -2.193  0.6853E+01  0.2134E+02
     -2.083  0.2165E+01  0.2158E+02
     -1.973  0.1773E+01  0.2177E+02
     -1.863  0.2034E+01  0.2200E+02
     -1.753  0.1593E+01  0.2217E+02
     -1.643  0.1903E+01  0.2238E+02
     -1.533  0.2310E+01  0.2264E+02
     -1.423  0.1235E+01  0.2277E+02
     -1.313  0.4437E+00  0.2282E+02
     -1.203  0.1201E+01  0.2295E+02
     -1.093  0.1386E+01  0.2311E+02
     -0.983  0.3446E+01  0.2348E+02
     -0.873  0.5930E+01  0.2414E+02
     -0.763  0.1772E+01  0.2433E+02
     -0.654  0.1055E+01  0.2445E+02
     -0.544  0.1093E+01  0.2457E+02
     -0.434  0.4338E+00  0.2461E+02
     -0.324  0.6901E+00  0.2469E+02
     -0.214  0.5963E+00  0.2476E+02
     -0.104  0.6457E+00  0.2483E+02
      0.006  0.1107E+01  0.2495E+02
      0.116  0.6037E+00  0.2502E+02
      0.226  0.6400E+00  0.2509E+02
      0.336  0.7784E+00  0.2517E+02
      0.446  0.8440E+00  0.2526E+02
      0.556  0.9904E+00  0.2537E+02
      0.666  0.7447E+00  0.2545E+02
      0.776  0.2220E+01  0.2570E+02
      0.886  0.4629E+01  0.2621E+02
      0.996  0.4824E+01  0.2674E+02
      1.106  0.8809E+01  0.2771E+02
      1.216  0.8698E+01  0.2866E+02
      1.326  0.5430E+01  0.2926E+02
      1.436  0.3588E+01  0.2965E+02
      1.545  0.4117E+01  0.3011E+02
      1.655  0.4669E+01  0.3062E+02
      1.765  0.3856E+01  0.3104E+02
      1.875  0.4694E+01  0.3156E+02
      1.985  0.3424E+01  0.3194E+02
      2.095  0.5569E+00  0.3200E+02
      2.205  0.1293E-01  0.3200E+02
      2.315  0.3430E-04  0.3200E+02
      2.425  0.9303E-08  0.3200E+02
      2.535  0.2444E-12  0.3200E+02
      2.645  0.0000E+00  0.3200E+02
      2.755  0.0000E+00  0.3200E+02
      2.865  0.0000E+00  0.3200E+02
      2.975  0.0000E+00  0.3200E+02
      3.085  0.0000E+00  0.3200E+02
      3.195  0.0000E+00  0.3200E+02
      3.305  0.0000E+00  0.3200E+02
      3.415  0.0000E+00  0.3200E+02
      3.525  0.0000E+00  0.3200E+02
      3.634  0.0000E+00  0.3200E+02
      3.744  0.0000E+00  0.3200E+02
      3.854  0.0000E+00  0.3200E+02
      3.964  0.0000E+00  0.3200E+02
      4.074  0.0000E+00  0.3200E+02
      4.184  0.0000E+00  0.3200E+02
      4.294  0.0000E+00  0.3200E+02
      4.404  0.0000E+00  0.3200E+02
      4.514  0.0000E+00  0.3200E+02
      4.624  0.3156E-14  0.3200E+02
      4.734  0.2747E-09  0.3200E+02
      4.844  0.2224E-05  0.3200E+02
      4.954  0.1801E-02  0.3200E+02
      5.064  0.1587E+00  0.3202E+02
      5.174  0.1790E+01  0.3221E+02
      5.284  0.3546E+01  0.3260E+02
      5.394  0.2610E+01  0.3289E+02
      5.504  0.1757E+01  0.3308E+02
      5.614  0.1489E+01  0.3325E+02
      5.724  0.1480E+01  0.3341E+02
      5.833  0.1689E+01  0.3360E+02
      5.943  0.1586E+01  0.3377E+02
      6.053  0.2605E+01  0.3406E+02
      6.163  0.3500E+01  0.3444E+02
      6.273  0.2399E+01  0.3471E+02
      6.383  0.1605E+01  0.3488E+02
      6.493  0.1761E+01  0.3508E+02
      6.603  0.2984E+01  0.3540E+02
      6.713  0.3115E+01  0.3575E+02
      6.823  0.2003E+01  0.3597E+02
      6.933  0.2206E+01  0.3621E+02
      7.043  0.3703E+01  0.3662E+02
      7.153  0.4082E+01  0.3707E+02
      7.263  0.1587E+01  0.3724E+02
      7.373  0.5974E+00  0.3731E+02
      7.483  0.4117E+00  0.3735E+02
      7.593  0.2736E+00  0.3738E+02
      7.703  0.2254E+00  0.3741E+02
      7.813  0.6647E+00  0.3748E+02
      7.923  0.9139E+00  0.3758E+02
      8.032  0.2150E+00  0.3760E+02
      8.142  0.2112E+00  0.3763E+02
      8.252  0.1988E+00  0.3765E+02
      8.362  0.1409E+00  0.3766E+02
      8.472  0.5023E+00  0.3772E+02
      8.582  0.6412E+00  0.3779E+02
      8.692  0.4084E+00  0.3783E+02
      8.802  0.3230E+00  0.3787E+02
      8.912  0.1070E+01  0.3799E+02
      9.022  0.1197E+01  0.3812E+02
      9.132  0.5932E+00  0.3818E+02
      9.242  0.7068E+00  0.3826E+02
      9.352  0.9364E+00  0.3836E+02
      9.462  0.4862E+00  0.3842E+02
      9.572  0.3219E+00  0.3845E+02
      9.682  0.4906E+00  0.3851E+02
      9.792  0.5511E+00  0.3857E+02
      9.902  0.5447E+00  0.3863E+02
     10.012  0.3228E+00  0.3866E+02
     10.121  0.3684E+00  0.3870E+02
     10.231  0.6379E+00  0.3877E+02
     10.341  0.7184E+00  0.3885E+02
     10.451  0.3821E+00  0.3890E+02
     10.561  0.1802E+00  0.3891E+02
     10.671  0.3293E+00  0.3895E+02
     10.781  0.6312E+00  0.3902E+02
     10.891  0.7522E+00  0.3910E+02
     11.001  0.7181E+00  0.3918E+02
     11.111  0.2279E+01  0.3943E+02
     11.221  0.2083E+01  0.3966E+02
     11.331  0.5923E+00  0.3973E+02
     11.441  0.3020E+01  0.4006E+02
     11.551  0.9857E+01  0.4114E+02
     11.661  0.1131E+02  0.4239E+02
     11.771  0.6119E+01  0.4306E+02
     11.881  0.3482E+01  0.4344E+02
     11.991  0.2289E+01  0.4369E+02
     12.101  0.1879E+01  0.4390E+02
     12.211  0.4242E+01  0.4437E+02
     12.320  0.7281E+01  0.4517E+02
     12.430  0.4717E+01  0.4569E+02
     12.540  0.5616E+01  0.4630E+02
     12.650  0.4982E+01  0.4685E+02
     12.760  0.1908E+01  0.4706E+02
     12.870  0.1354E+01  0.4721E+02
     12.980  0.1701E+01  0.4740E+02
     13.090  0.1254E+01  0.4753E+02
     13.200  0.1109E+01  0.4766E+02
     13.310  0.3947E+00  0.4770E+02
     13.420  0.2296E+00  0.4773E+02
     13.530  0.5155E+00  0.4778E+02
     13.640  0.5348E+00  0.4784E+02
     13.750  0.4400E+00  0.4789E+02
     13.860  0.2066E+00  0.4791E+02
     13.970  0.2593E+00  0.4794E+02
     14.080  0.8563E-01  0.4795E+02
     14.190  0.1128E-01  0.4795E+02
     14.300  0.1223E+00  0.4796E+02
     14.409  0.2514E+00  0.4799E+02
     14.519  0.7082E-01  0.4800E+02
     14.629  0.2480E-02  0.4800E+02
     14.739  0.9418E-05  0.4800E+02
     14.849  0.3559E-08  0.4800E+02
     14.959  0.1280E-12  0.4800E+02
     15.069  0.0000E+00  0.4800E+02
     15.179  0.0000E+00  0.4800E+02
     15.289  0.0000E+00  0.4800E+02
     15.399  0.0000E+00  0.4800E+02
     15.509  0.0000E+00  0.4800E+02
     15.619  0.0000E+00  0.4800E+02
     15.729  0.0000E+00  0.4800E+02
     15.839  0.0000E+00  0.4800E+02
     15.83883631    -17.14587527  301      2.42848951      1.00000000
    -17.146  0.0000E+00  0.0000E+00  0.0000E+00  0.0000E+00  0.0000E+00  0.0000E+00  0.0000E+00  0.0000E+00  0.0000E+00
    -17.036  0.0000E+00  0.0000E+00  0.0000E+00  0.0000E+00  0.0000E+00  0.0000E+00  0.0000E+00  0.0000E+00  0.0000E+00
    -16.926  0.0000E+00  0.0000E+00  0.0000E+00  0.0000E+00  0.0000E+00  0.0000E+00  0.0000E+00  0.0000E+00  0.0000E+00
    -16.816  0.0000E+00  0.0000E+00  0.0000E+00  0.0000E+00  0.0000E+00  0.0000E+00  0.0000E+00  0.0000E+00  0.0000E+00
    -16.706  0.0000E+00  0.0000E+00  0.0000E+00  0.0000E+00  0.0000E+00  0.0000E+00  0.0000E+00  0.0000E+00  0.0000E+00
    -16.596  0.0000E+00  0.0000E+00  0.0000E+00  0.0000E+00  0.0000E+00  0.0000E+00  0.0000E+00  0.0000E+00  0.0000E+00
    -16.486  0.0000E+00  0.0000E+00  0.0000E+00  0.0000E+00  0.0000E+00  0.0000E+00  0.0000E+00  0.0000E+00  0.0000E+00
    -16.376  0.0000E+00  0.0000E+00  0.0000E+00  0.0000E+00  0.0000E+00  0.0000E+00  0.0000E+00  0.0000E+00  0.0000E+00
    -16.266  0.0000E+00  0.0000E+00  0.0000E+00  0.0000E+00  0.0000E+00  0.0000E+00  0.0000E+00  0.0000E+00  0.0000E+00
    -16.156  0.3336E-13  0.1775E-17  0.5516E-19  0.5335E-23  0.0000E+00  0.0000E+00  0.0000E+00  0.0000E+00  0.0000E+00
    -16.046  0.1006E-08  0.7497E-13  0.2093E-14  0.1584E-18  0.0000E+00  0.0000E+00  0.0000E+00  0.0000E+00  0.0000E+00
    -15.936  0.2972E-05  0.3106E-09  0.8094E-11  0.4655E-15  0.0000E+00  0.0000E+00  0.0000E+00  0.0000E+00  0.0000E+00
    -15.826  0.9187E-03  0.1407E-06  0.3424E-08  0.1527E-12  0.0000E+00  0.0000E+00  0.0000E+00  0.0000E+00  0.0000E+00
    -15.717  0.3426E-01  0.8592E-05  0.1774E-06  0.7567E-11  0.0000E+00  0.0000E+00  0.0000E+00  0.0000E+00  0.0000E+00
    -15.607  0.2028E+00  0.1002E-03  0.1311E-05  0.8092E-10  0.0000E+00  0.0000E+00  0.0000E+00  0.0000E+00  0.0000E+00
    -15.497  0.2741E+00  0.3758E-03  0.1576E-05  0.1842E-09  0.0000E+00  0.0000E+00  0.0000E+00  0.0000E+00  0.0000E+00
    -15.387  0.1300E+00  0.7224E-03  0.3128E-06  0.8234E-10  0.0000E+00  0.0000E+00  0.0000E+00  0.0000E+00  0.0000E+00
    -15.277  0.6296E-01  0.9792E-03  0.9145E-08  0.2535E-10  0.0000E+00  0.0000E+00  0.0000E+00  0.0000E+00  0.0000E+00
    -15.167  0.4974E-01  0.1209E-02  0.4669E-10  0.3301E-10  0.0000E+00  0.0000E+00  0.0000E+00  0.0000E+00  0.0000E+00
    -15.057  0.4194E-01  0.1320E-02  0.1160E-10  0.2411E-10  0.0000E+00  0.0000E+00  0.0000E+00  0.0000E+00  0.0000E+00
    -14.947  0.3860E-01  0.1552E-02  0.1173E-10  0.4380E-10  0.0000E+00  0.0000E+00  0.0000E+00  0.0000E+00  0.0000E+00
    -14.837  0.3456E-01  0.1592E-02  0.1013E-10  0.2768E-10  0.0000E+00  0.0000E+00  0.0000E+00  0.0000E+00  0.0000E+00
    -14.727  0.3095E-01  0.1748E-02  0.2207E-10  0.2518E-10  0.0000E+00  0.0000E+00  0.0000E+00  0.0000E+00  0.0000E+00
    -14.617  0.3315E-01  0.2046E-02  0.1863E-10  0.1962E-10  0.0000E+00  0.0000E+00  0.0000E+00  0.0000E+00  0.0000E+00
    -14.507  0.2273E-01  0.1598E-02  0.6029E-11  0.8303E-11  0.0000E+00  0.0000E+00  0.0000E+00  0.0000E+00  0.0000E+00
    -14.397  0.3175E-01  0.2560E-02  0.2875E-09  0.4063E-10  0.0000E+00  0.0000E+00  0.0000E+00  0.0000E+00  0.0000E+00
    -14.287  0.3366E-01  0.2955E-02  0.4513E-07  0.6451E-10  0.0000E+00  0.0000E+00  0.0000E+00  0.0000E+00  0.0000E+00
    -14.177  0.1579E+00  0.1626E-01  0.9352E-06  0.1307E-09  0.0000E+00  0.0000E+00  0.0000E+00  0.0000E+00  0.0000E+00
    -14.067  0.4112E+00  0.4261E-01  0.2873E-05  0.3076E-09  0.0000E+00  0.0000E+00  0.0000E+00  0.0000E+00  0.0000E+00
    -13.957  0.2226E+00  0.2310E-01  0.1421E-05  0.1580E-09  0.0000E+00  0.0000E+00  0.0000E+00  0.0000E+00  0.0000E+00
    -13.847  0.3244E-01  0.3633E-02  0.1071E-06  0.3664E-10  0.0000E+00  0.0000E+00  0.0000E+00  0.0000E+00  0.0000E+00
    -13.737  0.3108E-01  0.4005E-02  0.1076E-08  0.7875E-10  0.0000E+00  0.0000E+00  0.0000E+00  0.0000E+00  0.0000E+00
    -13.628  0.2189E-01  0.2832E-02  0.6518E-11  0.6883E-10  0.0000E+00  0.0000E+00  0.0000E+00  0.0000E+00  0.0000E+00
    -13.518  0.6946E-02  0.1002E-02  0.3848E-11  0.1195E-10  0.0000E+00  0.0000E+00  0.0000E+00  0.0000E+00  0.0000E+00
    -13.408  0.2275E-01  0.3582E-02  0.1626E-10  0.6113E-11  0.0000E+00  0.0000E+00  0.0000E+00  0.0000E+00  0.0000E+00
    -13.298  0.2979E-01  0.4699E-02  0.1406E-10  0.1163E-10  0.0000E+00  0.0000E+00  0.0000E+00  0.0000E+00  0.0000E+00
    -13.188  0.9394E-02  0.1491E-02  0.2768E-11  0.4628E-11  0.0000E+00  0.0000E+00  0.0000E+00  0.0000E+00  0.0000E+00
    -13.078  0.7090E-02  0.1324E-02  0.2556E-11  0.4600E-11  0.0000E+00  0.0000E+00  0.0000E+00  0.0000E+00  0.0000E+00
    -12.968  0.2738E-01  0.5172E-02  0.7578E-11  0.1557E-10  0.0000E+00  0.0000E+00  0.0000E+00  0.0000E+00  0.0000E+00
    -12.858  0.2517E-01  0.4760E-02  0.3514E-11  0.1098E-10  0.0000E+00  0.0000E+00  0.0000E+00  0.0000E+00  0.0000E+00
    -12.748  0.5182E-02  0.9875E-03  0.3288E-12  0.1788E-11  0.0000E+00  0.0000E+00  0.0000E+00  0.0000E+00  0.0000E+00
    -12.638  0.5965E-02  0.1322E-02  0.1212E-11  0.3964E-12  0.0000E+00  0.0000E+00  0.0000E+00  0.0000E+00  0.0000E+00
    -12.528  0.2630E-01  0.5853E-02  0.4885E-11  0.2475E-11  0.0000E+00  0.0000E+00  0.0000E+00  0.0000E+00  0.0000E+00
    -12.418  0.2551E-01  0.5686E-02  0.3910E-11  0.3714E-11  0.0000E+00  0.0000E+00  0.0000E+00  0.0000E+00  0.0000E+00
    -12.308  0.5287E-02  0.1181E-02  0.7035E-12  0.9390E-12  0.0000E+00  0.0000E+00  0.0000E+00  0.0000E+00  0.0000E+00
    -12.198  0.2566E-02  0.6533E-03  0.5526E-12  0.3638E-12  0.0000E+00  0.0000E+00  0.0000E+00  0.0000E+00  0.0000E+00
    -12.088  0.1921E-01  0.4936E-02  0.5332E-11  0.6259E-11  0.0000E+00  0.0000E+00  0.0000E+00  0.0000E+00  0.0000E+00
    -11.978  0.2980E-01  0.7666E-02  0.1135E-10  0.1998E-10  0.0000E+00  0.0000E+00  0.0000E+00  0.0000E+00  0.0000E+00
    -11.868  0.9995E-02  0.2574E-02  0.4669E-11  0.9586E-11  0.0000E+00  0.0000E+00  0.0000E+00  0.0000E+00  0.0000E+00
    -11.758  0.8817E-03  0.2368E-03  0.3422E-12  0.1534E-11  0.0000E+00  0.0000E+00  0.0000E+00  0.0000E+00  0.0000E+00
    -11.648  0.7419E-02  0.2139E-02  0.1358E-11  0.1197E-07  0.0000E+00  0.0000E+00  0.0000E+00  0.0000E+00  0.0000E+00
    -11.538  0.2807E-01  0.8085E-02  0.1320E-09  0.1633E-04  0.0000E+00  0.0000E+00  0.0000E+00  0.0000E+00  0.0000E+00
    -11.429  0.2944E-01  0.6379E-02  0.2437E-07  0.2446E-02  0.0000E+00  0.0000E+00  0.0000E+00  0.0000E+00  0.0000E+00
    -11.319  0.1497E+00  0.1810E-02  0.5668E-06  0.4770E-01  0.0000E+00  0.0000E+00  0.0000E+00  0.0000E+00  0.0000E+00
    -11.209  0.4763E+00  0.3243E-02  0.1845E-05  0.1549E+00  0.0000E+00  0.0000E+00  0.0000E+00  0.0000E+00  0.0000E+00
    -11.099  0.3626E+00  0.6875E-02  0.9146E-06  0.1134E+00  0.0000E+00  0.0000E+00  0.0000E+00  0.0000E+00  0.0000E+00
    -10.989  0.1708E+00  0.1178E-01  0.6551E-07  0.4434E-01  0.0000E+00  0.0000E+00  0.0000E+00  0.0000E+00  0.0000E+00
    -10.879  0.1119E+00  0.7116E-02  0.6181E-09  0.2963E-01  0.0000E+00  0.0000E+00  0.0000E+00  0.0000E+00  0.0000E+00
    -10.769  0.8578E-01  0.3209E-02  0.1633E-10  0.2486E-01  0.0000E+00  0.0000E+00  0.0000E+00  0.0000E+00  0.0000E+00
    -10.659  0.8317E-01  0.4310E-02  0.2094E-10  0.2211E-01  0.0000E+00  0.0000E+00  0.0000E+00  0.0000E+00  0.0000E+00
    -10.549  0.9975E-01  0.1036E-01  0.1842E-09  0.1970E-01  0.0000E+00  0.0000E+00  0.0000E+00  0.0000E+00  0.0000E+00
    -10.439  0.1193E+00  0.1308E-01  0.3401E-07  0.2039E-01  0.0000E+00  0.0000E+00  0.0000E+00  0.0000E+00  0.0000E+00
    -10.329  0.2865E+00  0.2704E-01  0.8834E-06  0.3855E-01  0.0000E+00  0.0000E+00  0.0000E+00  0.0000E+00  0.0000E+00
    -10.219  0.6936E+00  0.7091E-01  0.3164E-05  0.7894E-01  0.0000E+00  0.0000E+00  0.0000E+00  0.0000E+00  0.0000E+00
    -10.109  0.3698E+00  0.3889E-01  0.1709E-05  0.4035E-01  0.0000E+00  0.0000E+00  0.0000E+00  0.0000E+00  0.0000E+00
     -9.999  0.3347E-01  0.3558E-02  0.1328E-06  0.3596E-02  0.0000E+00  0.0000E+00  0.0000E+00  0.0000E+00  0.0000E+00
     -9.889  0.4165E-03  0.4444E-04  0.1300E-08  0.4451E-04  0.0000E+00  0.0000E+00  0.0000E+00  0.0000E+00  0.0000E+00
     -9.779  0.5909E-06  0.6314E-07  0.1429E-11  0.6303E-07  0.0000E+00  0.0000E+00  0.0000E+00  0.0000E+00  0.0000E+00
     -9.669  0.9037E-08  0.6438E-08  0.1422E-13  0.6482E-08  0.0000E+00  0.0000E+00  0.0000E+00  0.0000E+00  0.0000E+00
     -9.559  0.1664E-04  0.1197E-04  0.3259E-10  0.1203E-04  0.0000E+00  0.0000E+00  0.0000E+00  0.0000E+00  0.0000E+00
     -9.449  0.3332E-02  0.2396E-02  0.8040E-08  0.2406E-02  0.0000E+00  0.0000E+00  0.0000E+00  0.0000E+00  0.0000E+00
     -9.339  0.8238E-01  0.5913E-01  0.2314E-06  0.5959E-01  0.0000E+00  0.0000E+00  0.0000E+00  0.0000E+00  0.0000E+00
     -9.230  0.3037E+00  0.2147E+00  0.8862E-06  0.2217E+00  0.0000E+00  0.0000E+00  0.0000E+00  0.0000E+00  0.0000E+00
     -9.120  0.2038E+00  0.1342E+00  0.4963E-06  0.1549E+00  0.0000E+00  0.0000E+00  0.0000E+00  0.0000E+00  0.0000E+00
     -9.010  0.4725E-01  0.2791E-01  0.3885E-07  0.3372E-01  0.0000E+00  0.0000E+00  0.0000E+00  0.0000E+00  0.0000E+00
     -8.900  0.5291E-01  0.3338E-01  0.3820E-09  0.2787E-01  0.0000E+00  0.0000E+00  0.0000E+00  0.0000E+00  0.0000E+00
     -8.790  0.3842E-01  0.1990E-01  0.6875E-11  0.2436E-01  0.0000E+00  0.0000E+00  0.0000E+00  0.0000E+00  0.0000E+00
     -8.680  0.1132E-01  0.4398E-02  0.1704E-11  0.8287E-02  0.0000E+00  0.0000E+00  0.0000E+00  0.0000E+00  0.0000E+00
     -8.570  0.3332E-01  0.1181E-01  0.4562E-11  0.2463E-01  0.0000E+00  0.0000E+00  0.0000E+00  0.0000E+00  0.0000E+00
     -8.460  0.3561E-01  0.1563E-01  0.4913E-11  0.2327E-01  0.0000E+00  0.0000E+00  0.0000E+00  0.0000E+00  0.0000E+00
     -8.350  0.2513E-01  0.2235E-01  0.3717E-11  0.4926E-02  0.0000E+00  0.0000E+00  0.0000E+00  0.0000E+00  0.0000E+00
     -8.240  0.3426E-01  0.2261E-01  0.6245E-11  0.1460E-01  0.0000E+00  0.0000E+00  0.0000E+00  0.0000E+00  0.0000E+00
     -8.130  0.4199E-01  0.1709E-01  0.1108E-10  0.2858E-01  0.0000E+00  0.0000E+00  0.0000E+00  0.0000E+00  0.0000E+00
     -8.020  0.1379E-01  0.5250E-02  0.4546E-11  0.9763E-02  0.0000E+00  0.0000E+00  0.0000E+00  0.0000E+00  0.0000E+00
     -7.910  0.5548E-02  0.2374E-02  0.9918E-12  0.3752E-02  0.0000E+00  0.0000E+00  0.0000E+00  0.0000E+00  0.0000E+00
     -7.800  0.3603E-01  0.1823E-01  0.5897E-11  0.2181E-01  0.0000E+00  0.0000E+00  0.0000E+00  0.0000E+00  0.0000E+00
     -7.690  0.5336E-01  0.3572E-01  0.1167E-10  0.2411E-01  0.0000E+00  0.0000E+00  0.0000E+00  0.0000E+00  0.0000E+00
     -7.580  0.1911E-01  0.1710E-01  0.6521E-11  0.4607E-02  0.0000E+00  0.0000E+00  0.0000E+00  0.0000E+00  0.0000E+00
     -7.470  0.9550E-02  0.5047E-02  0.1695E-11  0.5709E-02  0.0000E+00  0.0000E+00  0.0000E+00  0.0000E+00  0.0000E+00
     -7.360  0.3730E-01  0.1595E-01  0.4805E-11  0.2594E-01  0.0000E+00  0.0000E+00  0.0000E+00  0.0000E+00  0.0000E+00
     -7.250  0.2851E-01  0.1223E-01  0.3907E-11  0.1981E-01  0.0000E+00  0.0000E+00  0.0000E+00  0.0000E+00  0.0000E+00
     -7.141  0.6572E-02  0.4714E-02  0.8320E-12  0.3011E-02  0.0000E+00  0.0000E+00  0.0000E+00  0.0000E+00  0.0000E+00
     -7.031  0.3047E-01  0.2553E-01  0.3058E-11  0.1085E-01  0.0000E+00  0.0000E+00  0.0000E+00  0.0000E+00  0.0000E+00
     -6.921  0.5840E-01  0.3801E-01  0.6208E-11  0.2964E-01  0.0000E+00  0.0000E+00  0.0000E+00  0.0000E+00  0.0000E+00
     -6.811  0.2229E-01  0.1161E-01  0.4141E-11  0.1363E-01  0.0000E+00  0.0000E+00  0.0000E+00  0.0000E+00  0.0000E+00
     -6.701  0.1398E-01  0.5046E-02  0.9054E-09  0.9627E-02  0.0000E+00  0.0000E+00  0.0000E+00  0.0000E+00  0.0000E+00
     -6.591  0.6954E-01  0.2301E-01  0.6325E-07  0.4793E-01  0.0000E+00  0.0000E+00  0.0000E+00  0.0000E+00  0.0000E+00
     -6.481  0.2336E+00  0.7065E-01  0.5413E-06  0.1599E+00  0.0000E+00  0.0000E+00  0.0000E+00  0.0000E+00  0.0000E+00
     -6.371  0.2551E+00  0.8336E-01  0.6429E-06  0.1700E+00  0.0000E+00  0.0000E+00  0.0000E+00  0.0000E+00  0.0000E+00
     -6.261  0.6157E-01  0.3927E-01  0.1074E-06  0.2974E-01  0.0000E+00  0.0000E+00  0.0000E+00  0.0000E+00  0.0000E+00
     -6.151  0.8598E-02  0.1135E-01  0.2250E-08  0.6955E-03  0.0000E+00  0.0000E+00  0.0000E+00  0.0000E+00  0.0000E+00
     -6.041  0.4729E-03  0.6863E-03  0.5276E-11  0.1877E-05  0.0000E+00  0.0000E+00  0.0000E+00  0.0000E+00  0.0000E+00
     -5.931  0.3681E-05  0.5374E-05  0.1729E-14  0.5284E-09  0.0000E+00  0.0000E+00  0.0000E+00  0.0000E+00  0.0000E+00
     -5.821  0.1837E-04  0.3092E-04  0.5184E-14  0.5957E-13  0.0000E+00  0.0000E+00  0.0000E+00  0.0000E+00  0.0000E+00
     -5.711  0.1259E-02  0.2120E-02  0.3523E-12  0.3316E-11  0.0000E+00  0.0000E+00  0.0000E+00  0.0000E+00  0.0000E+00
     -5.601  0.1128E-01  0.1900E-01  0.3114E-11  0.3278E-10  0.0000E+00  0.0000E+00  0.0000E+00  0.0000E+00  0.0000E+00
     -5.491  0.1529E-01  0.2577E-01  0.4159E-11  0.4919E-10  0.0000E+00  0.0000E+00  0.0000E+00  0.0000E+00  0.0000E+00
     -5.381  0.3223E-02  0.5434E-02  0.8646E-12  0.1077E-09  0.0000E+00  0.0000E+00  0.0000E+00  0.0000E+00  0.0000E+00
     -5.271  0.9385E-04  0.1596E-03  0.1080E-11  0.4629E-06  0.0000E+00  0.0000E+00  0.0000E+00  0.0000E+00  0.0000E+00
     -5.161  0.8219E-04  0.7832E-03  0.5802E-09  0.2280E-03  0.0000E+00  0.0000E+00  0.0000E+00  0.0000E+00  0.0000E+00
     -5.051  0.4542E-02  0.4305E-01  0.3442E-07  0.1251E-01  0.0000E+00  0.0000E+00  0.0000E+00  0.0000E+00  0.0000E+00
     -4.942  0.3370E-01  0.3041E+00  0.2484E-06  0.8728E-01  0.0000E+00  0.0000E+00  0.0000E+00  0.0000E+00  0.0000E+00
     -4.832  0.4779E-01  0.3479E+00  0.2467E-06  0.9446E-01  0.0000E+00  0.0000E+00  0.0000E+00  0.0000E+00  0.0000E+00
     -4.722  0.2402E-01  0.1243E+00  0.3372E-07  0.3144E-01  0.0000E+00  0.0000E+00  0.0000E+00  0.0000E+00  0.0000E+00
     -4.612  0.4452E-02  0.2464E-01  0.4417E-07  0.6974E-02  0.0000E+00  0.0000E+00  0.0000E+00  0.0000E+00  0.0000E+00
     -4.502  0.2784E-02  0.1658E-01  0.3495E-04  0.5840E-02  0.0000E+00  0.0000E+00  0.0000E+00  0.0000E+00  0.0000E+00
     -4.392  0.9718E-02  0.5764E-01  0.3057E-02  0.2047E-01  0.0000E+00  0.0000E+00  0.0000E+00  0.0000E+00  0.0000E+00
     -4.282  0.5440E-02  0.3183E-01  0.3449E-01  0.1120E-01  0.0000E+00  0.0000E+00  0.0000E+00  0.0000E+00  0.0000E+00
     -4.172  0.4069E-02  0.1167E-01  0.6874E-01  0.1257E-02  0.0000E+00  0.0000E+00  0.0000E+00  0.0000E+00  0.0000E+00
     -4.062  0.1700E-01  0.5364E-01  0.4872E-01  0.8087E-02  0.0000E+00  0.0000E+00  0.0000E+00  0.0000E+00  0.0000E+00
     -3.952  0.1756E-01  0.7915E-01  0.3416E-01  0.2235E-01  0.0000E+00  0.0000E+00  0.0000E+00  0.0000E+00  0.0000E+00
     -3.842  0.4613E-02  0.2611E-01  0.3075E-01  0.9040E-02  0.0000E+00  0.0000E+00  0.0000E+00  0.0000E+00  0.0000E+00
     -3.732  0.4793E-03  0.3096E-02  0.2707E-01  0.1130E-02  0.0000E+00  0.0000E+00  0.0000E+00  0.0000E+00  0.0000E+00
     -3.622  0.3715E-02  0.2843E-01  0.2803E-01  0.1039E-01  0.0000E+00  0.0000E+00  0.0000E+00  0.0000E+00  0.0000E+00
     -3.512  0.1112E-01  0.7145E-01  0.2631E-01  0.2308E-01  0.0000E+00  0.0000E+00  0.0000E+00  0.0000E+00  0.0000E+00
     -3.402  0.6038E-01  0.1847E+00  0.3890E-01  0.7420E-02  0.0000E+00  0.0000E+00  0.0000E+00  0.0000E+00  0.0000E+00
     -3.292  0.1511E+00  0.4355E+00  0.6406E-01  0.2685E-02  0.0000E+00  0.0000E+00  0.0000E+00  0.0000E+00  0.0000E+00
     -3.182  0.6086E-01  0.2109E+00  0.7279E-01  0.1817E-01  0.0000E+00  0.0000E+00  0.0000E+00  0.0000E+00  0.0000E+00
     -3.072  0.7727E-02  0.6207E-01  0.4085E-01  0.1938E-01  0.0000E+00  0.0000E+00  0.0000E+00  0.0000E+00  0.0000E+00
     -2.962  0.1001E-02  0.1270E-01  0.2253E-01  0.4490E-02  0.0000E+00  0.0000E+00  0.0000E+00  0.0000E+00  0.0000E+00
     -2.853  0.2541E-02  0.4619E-01  0.2629E-01  0.1610E-01  0.0000E+00  0.0000E+00  0.0000E+00  0.0000E+00  0.0000E+00
     -2.743  0.4133E-02  0.6590E-01  0.2530E-01  0.2214E-01  0.0000E+00  0.0000E+00  0.0000E+00  0.0000E+00  0.0000E+00
     -2.633  0.8147E-02  0.5949E-01  0.1553E-01  0.1209E-01  0.0000E+00  0.0000E+00  0.0000E+00  0.0000E+00  0.0000E+00
     -2.523  0.1165E-01  0.1170E+00  0.4681E-01  0.3127E-01  0.0000E+00  0.0000E+00  0.0000E+00  0.0000E+00  0.0000E+00
     -2.413  0.3144E-02  0.2143E+00  0.1068E+00  0.1636E+00  0.0000E+00  0.0000E+00  0.0000E+00  0.0000E+00  0.0000E+00
     -2.303  0.5606E-03  0.5120E+00  0.7294E-01  0.5434E+00  0.0000E+00  0.0000E+00  0.0000E+00  0.0000E+00  0.0000E+00
     -2.193  0.1248E-03  0.2322E+00  0.5756E-01  0.3402E+00  0.0000E+00  0.0000E+00  0.0000E+00  0.0000E+00  0.0000E+00
     -2.083  0.1416E-03  0.1494E-01  0.5321E-01  0.1017E+00  0.0000E+00  0.0000E+00  0.0000E+00  0.0000E+00  0.0000E+00
     -1.973  0.2419E-02  0.1069E-01  0.5231E-01  0.6766E-01  0.0000E+00  0.0000E+00  0.0000E+00  0.0000E+00  0.0000E+00
     -1.863  0.8816E-02  0.3924E-01  0.5300E-01  0.6039E-01  0.0000E+00  0.0000E+00  0.0000E+00  0.0000E+00  0.0000E+00
     -1.753  0.4697E-02  0.2083E-01  0.4864E-01  0.4812E-01  0.0000E+00  0.0000E+00  0.0000E+00  0.0000E+00  0.0000E+00
     -1.643  0.3705E-03  0.1506E-02  0.7775E-01  0.5376E-01  0.0000E+00  0.0000E+00  0.0000E+00  0.0000E+00  0.0000E+00
     -1.533  0.1887E-04  0.1553E-04  0.1141E+00  0.3672E-01  0.0000E+00  0.0000E+00  0.0000E+00  0.0000E+00  0.0000E+00
     -1.423  0.2997E-04  0.1638E-03  0.4231E-01  0.5175E-01  0.0000E+00  0.0000E+00  0.0000E+00  0.0000E+00  0.0000E+00
     -1.313  0.1190E-02  0.7043E-02  0.3658E-02  0.2963E-01  0.0000E+00  0.0000E+00  0.0000E+00  0.0000E+00  0.0000E+00
     -1.203  0.6410E-02  0.3795E-01  0.1578E-01  0.4726E-01  0.0000E+00  0.0000E+00  0.0000E+00  0.0000E+00  0.0000E+00
     -1.093  0.4841E-02  0.2866E-01  0.2752E-01  0.5570E-01  0.0000E+00  0.0000E+00  0.0000E+00  0.0000E+00  0.0000E+00
     -0.983  0.5007E-03  0.2965E-02  0.6774E-02  0.3280E+00  0.0000E+00  0.0000E+00  0.0000E+00  0.0000E+00  0.0000E+00
     -0.873  0.6543E-05  0.3951E-04  0.1725E-02  0.5884E+00  0.0000E+00  0.0000E+00  0.0000E+00  0.0000E+00  0.0000E+00
     -0.763  0.7053E-04  0.5827E-03  0.1379E-01  0.1531E+00  0.0000E+00  0.0000E+00  0.0000E+00  0.0000E+00  0.0000E+00
     -0.654  0.1729E-02  0.1429E-01  0.2447E-01  0.4664E-01  0.0000E+00  0.0000E+00  0.0000E+00  0.0000E+00  0.0000E+00
     -0.544  0.5453E-02  0.4507E-01  0.1130E-01  0.3815E-01  0.0000E+00  0.0000E+00  0.0000E+00  0.0000E+00  0.0000E+00
     -0.434  0.2413E-02  0.1995E-01  0.2217E-02  0.1722E-01  0.0000E+00  0.0000E+00  0.0000E+00  0.0000E+00  0.0000E+00
     -0.324  0.1404E-03  0.1162E-02  0.1122E-01  0.4962E-01  0.0000E+00  0.0000E+00  0.0000E+00  0.0000E+00  0.0000E+00
     -0.214  0.3153E-04  0.3908E-03  0.1870E-01  0.2791E-01  0.0000E+00  0.0000E+00  0.0000E+00  0.0000E+00  0.0000E+00
     -0.104  0.9467E-03  0.1186E-01  0.1631E-01  0.2283E-01  0.0000E+00  0.0000E+00  0.0000E+00  0.0000E+00  0.0000E+00
      0.006  0.3683E-02  0.4613E-01  0.5765E-02  0.5152E-01  0.0000E+00  0.0000E+00  0.0000E+00  0.0000E+00  0.0000E+00