    8    8    1    1
  0.1000483E+02  0.4904166E-09  0.4904166E-09  0.3842748E-09  0.5000000E-15
  1.000000000000000E-004
  CAR 
 NAME                                    
   32   40   24
 
  0.0000000E+00  0.0000000E+00  0.0000000E+00  0.2500000E-01
   1      -15.646570
   2      -10.290214
   3      -10.290103
   4      -10.290102
   5       -9.292135
   6       -9.291881
   7       -9.291881
   8       -3.291094
   9       -2.348944
  10       -2.348944
  11       -2.348445
  12        1.098428
  13        1.099181
  14        1.903097
  15        1.903097
  16        1.903127
  17        6.104093
  18        6.104445
  19        6.104445
  20        6.981693
  21       11.508930
  22       11.509289
  23       11.509628
  24       12.503694
 
  0.0000000E+00  0.5555556E-01  0.0000000E+00  0.2500000E-01
   1      -15.628031
   2      -10.575038
   3      -10.363913
   4      -10.363801
   5       -9.187739
   6       -9.187486
   7       -8.979428
   8       -3.269340
   9       -2.407300
  10       -2.406804
  11       -2.330505
  12        1.021895
  13        1.057482
  14        1.791445
  15        1.891145
  16        1.891174
  17        6.133749
  18        6.134097
  19        6.244350
  20        7.005264
  21       11.517364
  22       11.594632
  23       11.595467
  24       12.542633
 
  0.0000000E+00  0.1111111E+00  0.0000000E+00  0.2500000E-01
   1      -15.572344
   2      -11.075625
   3      -10.526393
   4      -10.526286
   5       -8.933513
   6       -8.933256
   7       -8.396470
   8       -3.204135
   9       -2.577232
  10       -2.576744
  11       -2.275342
  12        0.796206
  13        0.938149
  14        1.494770
  15        1.857441
  16        1.857467
  17        6.219169
  18        6.219503
  19        6.625373
  20        7.076014
  21       11.540939
  22       11.845349
  23       11.845917
  24       12.622324
 
  0.0000000E+00  0.1666667E+00  0.0000000E+00  0.2500000E-01
   1      -15.479642
   2      -11.594084
   3      -10.707028
   4      -10.706931
   5       -8.601520
   6       -8.601255
   7       -7.741629
   8       -3.095678
   9       -2.844690
  10       -2.844215
  11       -2.183949
  12        0.436930
  13        0.751503
  14        1.087113
  15        1.807634
  16        1.807655
  17        6.350123
  18        6.350435
  19        7.171958
  20        7.194028
  21       11.567046
  22       12.244300
  23       12.248845
  24       12.310633
 
  0.0000000E+00  0.2222222E+00  0.0000000E+00  0.2500000E-01
   1      -15.350039
   2      -12.095831
   3      -10.875482
   4      -10.875398
   5       -8.224854
   6       -8.224579
   7       -7.050964
   8       -3.189743
   9       -3.189286
  10       -2.944307
  11       -2.057172
  12       -0.035233
  13        0.512541
  14        0.628209
  15        1.749274
  16        1.749290
  17        6.511423
  18        6.511705
  19        7.359371
  20        7.821676
  21       11.451690
  22       11.824780
  23       12.590039
  24       12.754885
 
  0.0000000E+00  0.2777778E+00  0.0000000E+00  0.2500000E-01
   1      -15.183675
   2      -12.571354
   3      -11.019967
   4      -11.019899
   5       -7.820209
   6       -7.819925
   7       -6.336087
   8       -3.589390
   9       -3.588956
  10       -2.750519
  11       -1.896279
  12       -0.597735
  13        0.154745
  14        0.237327
  15        1.690118
  16        1.690130
  17        6.684717
  18        6.684959
  19        7.572033
  20        8.534254
  21       10.927862
  22       11.806037
  23       12.607701
  24       12.987470
 
  0.0000000E+00  0.3333333E+00  0.0000000E+00  0.2500000E-01
   1      -14.980713
   2      -13.016744
   3      -11.135247
   4      -11.135195
   5       -7.402099
   6       -7.401813
   7       -5.603744
   8       -4.018022
   9       -4.017621
  10       -2.515003
  11       -1.703025
  12       -1.229132
  13       -0.312084
  14       -0.059043
  15        1.637011
  16        1.637018
  17        6.849699
  18        6.849893
  19        7.831999
  20        9.283690
  21       10.361503
  22       11.887411
  23       12.555378
  24       12.851104
 
  0.0000000E+00  0.3888889E+00  0.0000000E+00  0.2500000E-01
   1      -14.741525
   2      -13.430130
   3      -11.218872
   4      -11.218837
   5       -6.993263
   6       -6.992994
   7       -4.859842
   8       -4.442376
   9       -4.442030
  10       -2.238727
  11       -1.910609
  12       -1.479756
  13       -0.759769
  14       -0.363549
  15        1.595315
  16        1.595320
  17        6.986311
  18        6.986447
  19        8.138943
  20        9.828890
  21       10.051440
  22       11.990949
  23       12.437655
  24       12.740304
 
  0.0000000E+00  0.4444444E+00  0.0000000E+00  0.2500000E-01
   1      -14.466374
   2      -13.810056
   3      -11.269461
   4      -11.269444
   5       -6.647027
   6       -6.646832
   7       -4.801094
   8       -4.800860
   9       -4.110573
  10       -2.626304
  11       -1.922962
  12       -1.229548
  13       -1.180578
  14       -0.665505
  15        1.568823
  16        1.568825
  17        7.076873
  18        7.076943
  19        8.492646
  20        9.338463
  21       10.822499
  22       12.108516
  23       12.326383
  24       12.357949
 
  0.0000000E+00  0.5000000E+00  0.0000000E+00  0.2500000E-01
   1      -14.155700
   2      -14.155699
   3      -11.286400
   4      -11.286399
   5       -6.493234
   6       -6.493233
   7       -4.959414
   8       -4.959414
   9       -3.363167
  10       -3.363165
  11       -1.569443
  12       -1.569442
  13       -0.956398
  14       -0.956396
  15        1.559723
  16        1.559724
  17        7.108559
  18        7.108560
  19        8.892696
  20        8.892696
  21       11.583732
  22       11.584031
  23       12.221602
  24       12.226244
 
  0.0000000E+00  0.5000000E+00  0.0000000E+00  0.2500000E-01
   1      -14.155700
   2      -14.155699
   3      -11.286400
   4      -11.286399
   5       -6.493234
   6       -6.493233
   7       -4.959414
   8       -4.959414
   9       -3.363167
  10       -3.363165
  11       -1.569443
  12       -1.569442
  13       -0.956398
  14       -0.956396
  15        1.559723
  16        1.559724
  17        7.108559
  18        7.108560
  19        8.892696
  20        8.892696
  21       11.583794
  22       11.584462
  23       12.220450
  24       12.228556
 
  0.0000000E+00  0.5000000E+00  0.5555556E-01  0.2500000E-01
   1      -14.152998
   2      -14.152997
   3      -11.284242
   4      -11.284241
   5       -6.491915
   6       -6.491914
   7       -4.958375
   8       -4.958374
   9       -3.362257
  10       -3.362256
  11       -1.600950
  12       -1.600949
  13       -0.956029
  14       -0.956027
  15        1.534585
  16        1.534586
  17        7.091505
  18        7.091506
  19        8.983961
  20        8.983961
  21       11.572528
  22       11.572910
  23       12.222814
  24       12.234735
 
  0.0000000E+00  0.5000000E+00  0.1111111E+00  0.2500000E-01
   1      -14.145191
   2      -14.145190
   3      -11.277969
   4      -11.277968
   5       -6.488107
   6       -6.488106
   7       -4.955384
   8       -4.955384
   9       -3.359646
  10       -3.359644
  11       -1.689941
  12       -1.689940
  13       -0.954972
  14       -0.954970
  15        1.463263
  16        1.463263
  17        7.043061
  18        7.043062
  19        9.250402
  20        9.250402
  21       11.540262
  22       11.540393
  23       12.231591
  24       12.233340
 
  0.0000000E+00  0.5000000E+00  0.1666667E+00  0.2500000E-01
   1      -14.133150
   2      -14.133149
   3      -11.268266
   4      -11.268265
   5       -6.482244
   6       -6.482243
   7       -4.950789
   8       -4.950789
   9       -3.355639
  10       -3.355638
  11       -1.821685
  12       -1.821684
  13       -0.953349
  14       -0.953347
  15        1.356886
  16        1.356887
  17        6.970426
  18        6.970427
  19        9.670396
  20        9.670396
  21       11.495133
  22       11.495146
  23       12.245778
  24       12.246630
 
  0.0000000E+00  0.5000000E+00  0.2222222E+00  0.2500000E-01
   1      -14.118343
   2      -14.118341
   3      -11.256356
   4      -11.256355
   5       -6.475037
   6       -6.475036
   7       -4.945140
   8       -4.945139
   9       -3.350717
  10       -3.350716
  11       -1.976470
  12       -1.976469
  13       -0.951366
  14       -0.951364
  15        1.230741
  16        1.230742
  17        6.883438
  18        6.883439
  19       10.205899
  20       10.205899
  21       11.453465
  22       11.453486
  23       12.263605
  24       12.264036
 
  0.0000000E+00  0.5000000E+00  0.2777778E+00  0.2500000E-01
   1      -14.102390
   2      -14.102389
   3      -11.243644
   4      -11.243643
   5       -6.467322
   6       -6.467321
   7       -4.939111
   8       -4.939110
   9       -3.345466
  10       -3.345465
  11       -2.133884
  12       -2.133884
  13       -0.949259
  14       -0.949257
  15        1.101304
  16        1.101305
  17        6.793225
  18        6.793226
  19       10.770934
  20       10.770935
  21       11.471343
  22       11.471362
  23       12.286405
  24       12.286585
 
  0.0000000E+00  0.5000000E+00  0.3333333E+00  0.2500000E-01
   1      -14.087335
   2      -14.087334
   3      -11.231578
   4      -11.231577
   5       -6.460042
   6       -6.460041
   7       -4.933429
   8       -4.933428
   9       -3.340501
  10       -3.340500
  11       -2.275742
  12       -2.275741
  13       -0.947282
  14       -0.947281
  15        0.983763
  16        0.983764
  17        6.710730
  18        6.710731
  19       11.083123
  20       11.083124
  21       11.778553
  22       11.778554
  23       12.323058
  24       12.323103
 
  0.0000000E+00  0.5000000E+00  0.3888889E+00  0.2500000E-01
   1      -14.074946
   2      -14.074945
   3      -11.221663
   4      -11.221662
   5       -6.454094
   6       -6.454093
   7       -4.928787
   8       -4.928786
   9       -3.336431
  10       -3.336429
  11       -2.387483
  12       -2.387482
  13       -0.945669
  14       -0.945667
  15        0.890639
  16        0.890640
  17        6.644907
  18        6.644908
  19       11.117363
  20       11.117364
  21       12.195128
  22       12.195141
  23       12.510846
  24       12.510861
 
  0.0000000E+00  0.5000000E+00  0.4444444E+00  0.2500000E-01
   1      -14.066781
   2      -14.066780
   3      -11.215156
   4      -11.215155
   5       -6.450204
   6       -6.450203
   7       -4.925747
   8       -4.925746
   9       -3.333760
  10       -3.333759
  11       -2.458678
  12       -2.458677
  13       -0.944608
  14       -0.944606
  15        0.831069
  16        0.831070
  17        6.602608
  18        6.602609
  19       11.106916
  20       11.106918
  21       12.270037
  22       12.270084
  23       12.949556
  24       12.949693
 
  0.0000000E+00  0.5000000E+00  0.5000000E+00  0.2500000E-01
   1      -14.063930
   2      -14.063929
   3      -11.212910
   4      -11.212909
   5       -6.448889
   6       -6.448888
   7       -4.924693
   8       -4.924692
   9       -3.332816
  10       -3.332815
  11       -2.483098
  12       -2.483097
  13       -0.944240
  14       -0.944239
  15        0.810571
  16        0.810572
  17        6.587815
  18        6.587816
  19       11.101198
  20       11.101198
  21       12.280746
  22       12.280770
  23       13.144719
  24       13.144816
 
  0.0000000E+00  0.5000000E+00  0.5000000E+00  0.2500000E-01
   1      -14.063930
   2      -14.063929
   3      -11.212910
   4      -11.212909
   5       -6.448889
   6       -6.448888
   7       -4.924693
   8       -4.924692
   9       -3.332816
  10       -3.332815
  11       -2.483098
  12       -2.483097
  13       -0.944240
  14       -0.944239
  15        0.810571
  16        0.810572
  17        6.587815
  18        6.587816
  19       11.101198
  20       11.101199
  21       12.280749
  22       12.280771
  23       13.144674
  24       13.144869
 
  0.0000000E+00  0.4444444E+00  0.5000000E+00  0.2500000E-01
   1      -14.372502
   2      -13.720605
   3      -11.196073
   4      -11.196056
   5       -6.601763
   6       -6.601568
   7       -4.767456
   8       -4.767222
   9       -4.076622
  10       -2.852022
  11       -2.599492
  12       -2.076192
  13       -1.217021
  14       -0.653768
  15        0.821932
  16        0.821934
  17        6.540997
  18        6.541074
  19       10.298579
  20       11.848343
  21       12.172768
  22       12.383730
  23       12.846661
  24       13.507236
 
  0.0000000E+00  0.3888889E+00  0.5000000E+00  0.2500000E-01
   1      -14.645744
   2      -13.343139
   3      -11.145705
   4      -11.145670
   5       -6.945928
   6       -6.945658
   7       -4.822253
   8       -4.411254
   9       -4.410907
  10       -3.180860
  11       -1.887264
  12       -1.634314
  13       -1.466923
  14       -0.352287
  15        0.855222
  16        0.855225
  17        6.408688
  18        6.408836
  19        9.478288
  20       12.066043
  21       12.277176
  22       12.474736
  23       12.864604
  24       13.909204
 
  0.0000000E+00  0.3333333E+00  0.5000000E+00  0.2500000E-01
   1      -14.883308
   2      -12.932406
   3      -11.062477
   4      -11.062424
   5       -7.352418
   6       -7.352131
   7       -5.562526
   8       -3.990005
   9       -3.989605
  10       -3.468100
  11       -1.689924
  12       -1.209119
  13       -1.161955
  14       -0.048313
  15        0.907992
  16        0.907995
  17        6.212339
  18        6.212544
  19        8.658026
  20       11.965597
  21       12.132552
  22       12.545739
  23       13.439400
  24       14.339531
 
  0.0000000E+00  0.2777778E+00  0.5000000E+00  0.2500000E-01
   1      -15.084817
   2      -12.489778
   3      -10.947670
   4      -10.947601
   5       -7.768205
   6       -7.767921
   7       -6.291205
   8       -3.712636
   9       -3.564675
  10       -3.564241
  11       -1.882959
  12       -0.666157
  13       -0.580853
  14        0.247488
  15        0.975975
  16        0.975977
  17        5.979883
  18        5.980134
  19        7.854095
  20       11.875218
  21       11.927155
  22       12.590973
  23       13.621145
  24       13.689795
 
  0.0000000E+00  0.2222222E+00  0.5000000E+00  0.2500000E-01
   1      -15.249928
   2      -12.017148
   3      -10.803854
   4      -10.803770
   5       -8.170686
   6       -8.170411
   7       -7.002486
   8       -3.913651
   9       -3.168288
  10       -3.167831
  11       -2.043661
  12       -0.158595
  13       -0.021198
  14        0.522129
  15        1.052798
  16        1.052798
  17        5.739939
  18        5.740226
  19        7.085466
  20       11.747487
  21       11.797788
  22       12.608509
  23       12.960456
  24       12.961368
 
  0.0000000E+00  0.1666667E+00  0.5000000E+00  0.2500000E-01
   1      -15.378618
   2      -11.518311
   3      -10.636083
   4      -10.635985
   5       -8.545508
   6       -8.545244
   7       -7.689603
   8       -4.070554
   9       -2.826232
  10       -2.825757
  11       -2.170297
  12        0.340144
  13        0.448527
  14        0.760562
  15        1.129901
  16        1.129905
  17        5.518944
  18        5.519257
  19        6.378412
  20       11.604310
  21       11.735703
  22       12.411493
  23       12.432737
  24       12.665044
 
  0.0000000E+00  0.1111111E+00  0.5000000E+00  0.2500000E-01
   1      -15.470594
   2      -11.002626
   3      -10.455970
   4      -10.455862
   5       -8.876084
   6       -8.875827
   7       -8.341257
   8       -4.182905
   9       -2.561224
  10       -2.560736
  11       -2.261599
  12        0.792091
  13        0.805962
  14        0.946756
  15        1.196883
  16        1.196890
  17        5.340606
  18        5.340938
  19        5.774735
  20       11.500921
  21       11.690127
  22       11.998163
  23       12.001138
  24       12.639227
 
  0.0000000E+00  0.5555556E-01  0.5000000E+00  0.2500000E-01
   1      -15.525830
   2      -10.504242
   3      -10.293705
   4      -10.293593
   5       -9.129563
   6       -9.129309
   7       -8.921743
   8       -4.250430
   9       -2.392913
  10       -2.392417
  11       -2.316702
  12        1.030481
  13        1.065749
  14        1.129573
  15        1.242897
  16        1.242907
  17        5.224475
  18        5.224819
  19        5.345145
  20       11.438481
  21       11.662859
  22       11.740497
  23       11.741924
  24       12.578112
 
  0.0000000E+00  0.0000000E+00  0.5000000E+00  0.2500000E-01
   1      -15.544265
   2      -10.219971
   3      -10.219860
   4      -10.219860
   5       -9.233879
   6       -9.233625
   7       -9.233625
   8       -4.272961
   9       -2.335126
  10       -2.335126
  11       -2.334627
  12        1.106547
  13        1.107300
  14        1.259346
  15        1.259346
  16        1.259357
  17        5.184113
  18        5.184460
  19        5.184460
  20       11.417737
  21       11.652843
  22       11.652906
  23       11.656094
  24       12.535008
 
  0.0000000E+00  0.0000000E+00  0.5000000E+00  0.2500000E-01
   1      -15.544265
   2      -10.219971
   3      -10.219860
   4      -10.219860
   5       -9.233879
   6       -9.233625
   7       -9.233625
   8       -4.272961
   9       -2.335126
  10       -2.335126
  11       -2.334627
  12        1.106547
  13        1.107300
  14        1.259346
  15        1.259346
  16        1.259357
  17        5.184113
  18        5.184460
  19        5.184460
  20       11.417570
  21       11.652843
  22       11.652915
  23       11.653627
  24       12.535007
 
  0.0000000E+00  0.0000000E+00  0.4444444E+00  0.2500000E-01
   1      -15.547406
   2      -10.222127
   3      -10.222017
   4      -10.222017
   5       -9.235669
   6       -9.235415
   7       -9.235415
   8       -4.246927
   9       -2.335543
  10       -2.335543
  11       -2.335045
  12        1.106359
  13        1.107112
  14        1.277253
  15        1.277253
  16        1.277265
  17        5.208145
  18        5.208493
  19        5.208493
  20       11.182699
  21       11.648418
  22       11.648634
  23       11.649201
  24       12.534424
 
  0.0000000E+00  0.0000000E+00  0.3888889E+00  0.2500000E-01
   1      -15.556529
   2      -10.228273
   3      -10.228162
   4      -10.228162
   5       -9.240766
   6       -9.240512
   7       -9.240512
   8       -4.171004
   9       -2.336744
  10       -2.336744
  11       -2.336245
  12        1.105635
  13        1.106388
  14        1.329303
  15        1.329303
  16        1.329316
  17        5.278504
  18        5.278852
  19        5.278852
  20       10.599175
  21       11.635748
  22       11.636183
  23       11.638298
  24       12.531231
 
  0.0000000E+00  0.0000000E+00  0.3333333E+00  0.2500000E-01
   1      -15.570333
   2      -10.237797
   3      -10.237686
   4      -10.237686
   5       -9.248613
   6       -9.248359
   7       -9.248359
   8       -4.051655
   9       -2.338585
  10       -2.338585
  11       -2.338086
  12        1.104540
  13        1.105294
  14        1.410334
  15        1.410334
  16        1.410350
  17        5.389414
  18        5.389762
  19        5.389762
  20        9.865755
  21       11.616368
  22       11.616604
  23       11.617906
  24       12.527085
 
  0.0000000E+00  0.0000000E+00  0.2777778E+00  0.2500000E-01
   1      -15.587135
   2      -10.249333
   3      -10.249222
   4      -10.249222
   5       -9.258155
   6       -9.257901
   7       -9.257901
   8       -3.899815
   9       -2.340843
  10       -2.340843
  11       -2.340344
  12        1.103209
  13        1.103962
  14        1.512119
  15        1.512119
  16        1.512137
  17        5.530906
  18        5.531255
  19        5.531255
  20        9.113041
  21       11.592833
  22       11.593230
  23       11.595583
  24       12.522001
 
  0.0000000E+00  0.0000000E+00  0.2222222E+00  0.2500000E-01
   1      -15.604912
   2      -10.261528
   3      -10.261417
   4      -10.261417
   5       -9.268265
   6       -9.268011
   7       -9.268011
   8       -3.730841
   9       -2.343239
  10       -2.343239
  11       -2.342740
  12        1.101806
  13        1.102559
  14        1.623522
  15        1.623522
  16        1.623543
  17        5.689065
  18        5.689415
  19        5.689415
  20        8.415229
  21       11.567959
  22       11.568418
  23       11.569729
  24       12.516833
 
  0.0000000E+00  0.0000000E+00  0.1666667E+00  0.2500000E-01
   1      -15.621427
   2      -10.272929
   3      -10.272818
   4      -10.272818
   5       -9.277730
   6       -9.277476
   7       -9.277476
   8       -3.564138
   9       -2.345493
  10       -2.345493
  11       -2.344994
  12        1.100481
  13        1.101234
  14        1.731362
  15        1.731362
  16        1.731387
  17        5.845811
  18        5.846162
  19        5.846162
  20        7.820701
  21       11.544662
  22       11.544916
  23       11.545517
  24       12.512015
 
  0.0000000E+00  0.0000000E+00  0.1111111E+00  0.2500000E-01
   1      -15.634890
   2      -10.282160
   3      -10.282049
   4      -10.282049
   5       -9.285419
   6       -9.285165
   7       -9.285165
   8       -3.421763
   9       -2.347331
  10       -2.347331
  11       -2.346832
  12        1.099352
  13        1.100105
  14        1.821683
  15        1.821683
  16        1.821711
  17        5.980187
  18        5.980539
  19        5.980539
  20        7.365805
  21       11.525676
  22       11.525917
  23       11.527763
  24       12.507397
 
  0.0000000E+00  0.0000000E+00  0.5555556E-01  0.2500000E-01
   1      -15.643563
   2      -10.288172
   3      -10.288061
   4      -10.288061
   5       -9.290421
   6       -9.290167
   7       -9.290167
   8       -3.325301
   9       -2.348531
  10       -2.348531
  11       -2.348032
  12        1.098650
  13        1.099403
  14        1.881896
  15        1.881896
  16        1.881926
  17        6.071568
  18        6.071920
  19        6.071920
  20        7.079545
  21       11.513235
  22       11.513588
  23       11.513987
  24       12.504489
 
  0.0000000E+00  0.0000000E+00  0.0000000E+00  0.2500000E-01
   1      -15.646570
   2      -10.290214
   3      -10.290103
   4      -10.290102
   5       -9.292135
   6       -9.291881
   7       -9.291881
   8       -3.291094
   9       -2.348944
  10       -2.348944
  11       -2.348445
  12        1.098428
  13        1.099181
  14        1.903097
  15        1.903097
  16        1.903127
  17        6.104093
  18        6.104445
  19        6.104445
  20        6.981693
  21       11.508930
  22       11.509295
  23       11.509850
  24       12.503595
