 vasp.5.2.11 25Nov10 complex 
 executed on             LinuxIFC date 2018.12.15  14:01:18
 running on   12 nodes
 distr:  one band on    1 nodes,   12 groups


--------------------------------------------------------------------------------------------------------


 INCAR:
 POTCAR:   PAW_PBE C 08Apr2002                    
 POTCAR:   PAW_PBE C 08Apr2002                    
   VRHFIN =C: s2p2                                                              
   LEXCH  = PE                                                                  
   EATOM  =   147.1560 eV,   10.8157 Ry                                         
                                                                                
   TITEL  = PAW_PBE C 08Apr2002                                                 
   LULTRA =        F    use ultrasoft PP ?                                      
   IUNSCR =        0    unscreen: 0-lin 1-nonlin 2-no                           
   RPACOR =     .000    partial core radius                                     
   POMASS =   12.011; ZVAL   =    4.000    mass and valenz                      
   RCORE  =    1.500    outmost cutoff radius                                   
   RWIGS  =    1.630; RWIGS  =     .863    wigner-seitz radius (au A)           
   ENMAX  =  400.000; ENMIN  =  300.000 eV                                      
   ICORE  =        2    local potential                                         
   LCOR   =        T    correct aug charges                                     
   LPAW   =        T    paw PP                                                  
   EAUG   =  644.873                                                            
   DEXC   =     .000                                                            
   RMAX   =    2.266    core radius for proj-oper                               
   RAUG   =    1.300    factor for augmentation sphere                          
   RDEP   =    1.501    radius for radial grids                                 
   RDEPT  =    1.300    core radius for aug-charge                              
   QCUT   =   -5.516; QGAM   =   11.032    optimization parameters              
                                                                                
   Description                                                                  
     l     E      TYP  RCUT    TYP  RCUT                                        
     0   .000     23  1.200                                                     
     0   .000     23  1.200                                                     
     1   .000     23  1.500                                                     
     1  2.500     23  1.500                                                     
     2   .000      7  1.500                                                     
  local pseudopotential read in
  atomic valenz-charges read in
  non local Contribution for L=           0  read in
    real space projection operators read in
  non local Contribution for L=           0  read in
    real space projection operators read in
  non local Contribution for L=           1  read in
    real space projection operators read in
  non local Contribution for L=           1  read in
    real space projection operators read in
    PAW grid and wavefunctions read in
 
   number of l-projection  operators is LMAX  =           4
   number of lm-projection operators is LMMAX =           8
 
 PAW_PBE C 08Apr2002                    :
 energy of atom  1       EATOM= -147.1560
 kinetic energy error for atom=    0.0076 (will be added to EATOM!!)
 
 
 POSCAR: graphite                                
  positions in direct lattice
  velocities in cartesian coordinates
 exchange correlation table for  LEXCH =        8
   RHO(1)=    0.500       N(1)  =     2000
   RHO(2)=  100.500       N(2)  =     4000

 VTST: version 3.1, (03/28/14)

 CHAIN: initializing optimizer
 
 OPT: Using VASP Dynamics algorithm
 CHAIN: Read ICHAIN            0
 
 POSCAR: graphite                                
  positions in direct lattice
  velocities in cartesian coordinates
 


--------------------------------------------------------------------------------------------------------


 ion  position               nearest neighbor table
   1  1.000  0.000  0.073-   4 1.42   8 1.42   2 1.42
   2  0.333  0.167  0.073-   3 1.42   7 1.42   1 1.42
   3  0.500  0.000  0.073-   2 1.42   6 1.42   4 1.42
   4  0.833  0.167  0.073-   1 1.42   3 1.42   5 1.42
   5  1.000  0.500  0.073-   8 1.42   4 1.42   6 1.42
   6  0.333  0.667  0.073-   7 1.42   3 1.42   5 1.42
   7  0.500  0.500  0.073-   6 1.42   8 1.42   2 1.42
   8  0.833  0.667  0.073-   5 1.42   1 1.42   7 1.42
 
  LATTYP: Found a base centered orthorhombic cell.
 ALAT       =     4.9041094316
 B/A-ratio  =     1.7320774176
 C/A-ratio  =     0.7835771167
  
  Lattice vectors:
  
 A1 = (   4.9041659392,  -0.0000326247,   0.0000000000)
 A2 = (  -2.4521112234,   4.2471159754,   0.0000000000)
 A3 = (   0.0000000000,   0.0000000000,   3.8427479285)
 Subroutine PRICEL returns following result:
 
  LATTYP: Found a simple monoclinic cell.
 ALAT       =     2.4520971692
 B/A-ratio  =     1.5671271011
 C/A-ratio  =     1.7320375029
 COS(beta)  =    -0.8660287471
  
  Lattice vectors:
  
 A1 = (   1.2260627116,  -2.1235702848,   0.0000000000)
 A2 = (   0.0000000000,   0.0000000000,  -3.8427479285)
 A3 = (  -0.0000566531,   4.2471242574,   0.0000000000)
 
   4 primitive cells build up your supercell.
 

Analysis of symmetry for initial positions (statically):

 Routine SETGRP: Setting up the symmetry group for a 
 base centered orthorhombic supercell.


 Subroutine GETGRP returns: Found  8 space group operations
 (whereof  2 operations were pure point group operations)
 out of a pool of  8 trial point group operations.


The static configuration has the point symmetry C_1h.
 The point group associated with its full space group is D_2h.

Analysis of symmetry for dynamics (positions and initial velocities):

 Subroutine DYNSYM returns: Found  8 space group operations
 (whereof  2 operations were pure point group operations)
 out of a pool of  8 trial space group operations
 (whereof  2 operations were pure point group operations)
 and found also     4 'primitive' translations


The dynamic configuration has the point symmetry C_1h.
 The point group associated with its full space group is D_2h.
 
 
 KPOINTS: kpoint for band-structure G-F-Q-Z-G     
  interpolating k-points between supplied coordinates
  k-points in reciprocal lattice


--------------------------------------------------------------------------------------------------------




 Dimension of arrays:
   k-points           NKPTS =     40   k-points in BZ     NKDIM =     40   number of bands    NBANDS=     24
   number of dos      NEDOS =    301   number of ions     NIONS =      8
   non local maximal  LDIM  =      4   non local SUM 2l+1 LMDIM =      8
   total plane-waves  NPLWV =  18816
   max r-space proj   IRMAX =      1   max aug-charges    IRDMAX=   1143
   dimension x,y,z NGX =    28 NGY =   28 NGZ =   24
   dimension x,y,z NGXF=    40 NGYF=   40 NGZF=   32
   support grid    NGXF=    40 NGYF=   40 NGZF=   32
   ions per type =               8
 NGX,Y,Z   is equivalent  to a cutoff of   9.49,  9.49, 10.38 a.u.
 NGXF,Y,Z  is equivalent  to a cutoff of  13.56, 13.56, 13.84 a.u.


 I would recommend the setting:
   dimension x,y,z NGX =    27 NGY =   27 NGZ =   21
 SYSTEM =  NAME                                    
 POSCAR =  graphite                                

 Startparameter for this run:
   NWRITE =      2    write-flag & timer
   PREC   = medium    normal or accurate (medium, high low for compatibility)
   ISTART =      0    job   : 0-new  1-cont  2-samecut
   ICHARG =     11    charge: 1-file 2-atom 10-const
   ISPIN  =      1    spin polarized calculation?
   LNONCOLLINEAR =      F non collinear calculations
   LSORBIT =      F    spin-orbit coupling
   INIWAV =      1    electr: 0-lowe 1-rand  2-diag
   LASPH  =      F    aspherical Exc in radial PAW
   METAGGA=      F    non-selfconsistent MetaGGA calc.

 Electronic Relaxation 1
   ENCUT  =  500.0 eV  36.75 Ry    6.06 a.u.   8.94  8.94  7.01*2*pi/ulx,y,z
   ENINI  =  500.0     initial cutoff
   ENAUG  =  644.9 eV  augmentation charge cutoff
   NELM   =    100;   NELMIN=  5; NELMDL= -5     # of ELM steps 
   EDIFF  = 0.1E-03   stopping-criterion for ELM
   LREAL  =      F    real-space projection
   LCOMPAT=      F    compatible to vasp.4.4
   GGA_COMPAT  = T    GGA compatible to vasp.4.4-vasp.4.6
   LMAXPAW     = -100 max onsite density
   LMAXMIX     =    2 max onsite mixed and CHGCAR
   VOSKOWN=      0    Vosko Wilk Nusair interpolation
   ROPT   =    0.00000
 Ionic relaxation
   EDIFFG = 0.1E-02   stopping-criterion for IOM
   NSW    =      0    number of steps for IOM
   NBLOCK =      1;   KBLOCK =      1    inner block; outer block 
   IBRION =     -1    ionic relax: 0-MD 1-quasi-New 2-CG
   NFREE  =      0    steps in history (QN), initial steepest desc. (CG)
   ISIF   =      2    stress and relaxation
   IWAVPR =     10    prediction:  0-non 1-charg 2-wave 3-comb
   ISYM   =      2    0-nonsym 1-usesym 2-fastsym
   LCORR  =      T    Harris-Foulkes like correction to forces

   POTIM  = 0.5000    time-step for ionic-motion
   TEIN   =    0.0    initial temperature
   TEBEG  =    0.0;   TEEND  =   0.0 temperature during run
   SMASS  =  -3.00    Nose mass-parameter (am)
   estimated Nose-frequenzy (Omega)   =  0.10E-29 period in steps =****** mass=  -0.550E-27a.u.
   NPACO  =    256;   APACO  = 16.0  distance and # of slots for P.C.
   PSTRESS=    0.0 pullay stress

  Mass of Ions in am
   POMASS =  12.01
  Ionic Valenz
   ZVAL   =   4.00
  Atomic Wigner-Seitz radii
   RWIGS  =  -1.00
  virtual crystal weights 
   VCA    =   1.00
   NELECT =      32.0000    total number of electrons
   NUPDOWN=      -1.0000    fix difference up-down

 DOS related values:
   EMIN   =  10.00;   EMAX   =-10.00  energy-range for DOS
   EFERMI =   0.00
   ISMEAR =     0;   SIGMA  =   0.10  broadening in eV -4-tet -1-fermi 0-gaus

 Electronic relaxation 2 (details)
   IALGO  =     38    algorithm
   LDIAG  =      T    sub-space diagonalisation (order eigenvalues)
   LSUBROT=      T    optimize rotation matrix (better conditioning)
   TURBO    =      0    0=normal 1=particle mesh
   IRESTART =      0    0=no restart 2=restart with 2 vectors
   NREBOOT  =      0    no. of reboots
   NMIN     =      0    reboot dimension
   EREF     =   0.00    reference energy to select bands
   IMIX   =      4    mixing-type and parameters
     AMIX     =   0.40;   BMIX     =  1.00
     AMIX_MAG =   1.60;   BMIX_MAG =  1.00
     AMIN     =   0.10
     WC   =   100.;   INIMIX=   1;  MIXPRE=   1

 Intra band minimization:
   WEIMIN = 0.0000     energy-eigenvalue tresh-hold
   EBREAK =  0.12E-05  absolut break condition
   DEPER  =   0.30     relativ break condition  

   TIME   =   0.40     timestep for ELM

  volume/ion in A,a.u.               =      10.00        67.52
  Fermi-wavevector in a.u.,A,eV,Ry     =   1.206031  2.279067 19.789807  1.454510
  Thomas-Fermi vector in A             =   2.341710
 
 Write flags
   LWAVE  =      T    write WAVECAR
   LCHARG =      T    write CHGCAR
   LVTOT  =      F    write LOCPOT, total local potential
   LVHAR  =      F    write LOCPOT, Hartree potential only
   LELF   =      F    write electronic localiz. function (ELF)
   LORBIT =     11    0 simple, 1 ext, 2 COOP (PROOUT)


 Dipole corrections
   LMONO  =      F    monopole corrections only (constant potential shift)
   LDIPOL =      F    correct potential (dipole corrections)
   IDIPOL =      0    1-x, 2-y, 3-z, 4-all directions 
   EPSILON=  1.0000000 bulk dielectric constant

 Exchange correlation treatment:
   GGA     =    --    GGA type
   LEXCH   =     8    internal setting for exchange type
   VOSKOWN=      0    Vosko Wilk Nusair interpolation
   LHFCALC =     F    Hartree Fock is set to
   LHFONE  =     F    Hartree Fock one center treatment
   AEXX    =    0.0000 exact exchange contribution

 Linear response parameters
   LEPSILON=     F    determine dielectric tensor
   LRPA    =     F    only Hartree local field effects (RPA)
   LNABLA  =     F    use nabla operator in PAW spheres
   LVEL    =     F    velocity operator in full k-point grid
   LINTERFAST=   F  fast interpolation
   KINTER  =     0    interpolate to denser k-point grid
   CSHIFT  =0.1000    complex shift for real part using Kramers Kronig
   OMEGAMAX=  -1.0    maximum frequency
   RTIME   =    0.100 relaxation time in fs

 Orbital magnetization related:
   ORBITALMAG=     F  switch on orbital magnetization
   LCHIMAG   =     F  perturbation theory with respect to B field



--------------------------------------------------------------------------------------------------------


 Static calculation
 charge density and potential remain constant during run
 non-spin polarized calculation
 Variant of blocked Davidson
 Davidson routine will perform the subspace rotation
 perform sub-space diagonalisation
    after iterative eigenvector-optimisation
 no mixing
 using additional bands            8
 reciprocal scheme for non local part
 calculate Harris-corrections to forces 
   (improved forces if not selfconsistent)
 use gradient corrections 
 WARNING: stress and forces are not correct
  (second derivative of E(xc) not defined)
 use of overlap-Matrix (Vanderbilt PP)
 Gauss-broadening in eV      SIGMA  =   0.10


--------------------------------------------------------------------------------------------------------


  energy-cutoff  :      500.00
  volume of cell :       80.04
      direct lattice vectors                 reciprocal lattice vectors
     4.904165939 -0.000032625  0.000000000     0.203909055  0.117728756  0.000000000
    -2.452111223  4.247115975  0.000000000     0.000001566  0.235454800  0.000000000
     0.000000000  0.000000000  3.842747929     0.000000000  0.000000000  0.260230444

  length of vectors
     4.904165939  4.904165939  3.842747929     0.235454800  0.235454800  0.260230444


 
 k-points in units of 2pi/SCALE and weight: kpoint for band-structure G-F-Q-Z-G     
   0.00000000  0.00000000  0.00000000       0.025
   0.00000009  0.01308082  0.00000000       0.025
   0.00000017  0.02616164  0.00000000       0.025
   0.00000026  0.03924247  0.00000000       0.025
   0.00000035  0.05232329  0.00000000       0.025
   0.00000044  0.06540411  0.00000000       0.025
   0.00000052  0.07848493  0.00000000       0.025
   0.00000061  0.09156576  0.00000000       0.025
   0.00000070  0.10464658  0.00000000       0.025
   0.00000078  0.11772740  0.00000000       0.025
   0.00000078  0.11772740  0.00000000       0.025
   0.00000078  0.11772740  0.01445725       0.025
   0.00000078  0.11772740  0.02891449       0.025
   0.00000078  0.11772740  0.04337174       0.025
   0.00000078  0.11772740  0.05782899       0.025
   0.00000078  0.11772740  0.07228623       0.025
   0.00000078  0.11772740  0.08674348       0.025
   0.00000078  0.11772740  0.10120073       0.025
   0.00000078  0.11772740  0.11565798       0.025
   0.00000078  0.11772740  0.13011522       0.025
   0.00000078  0.11772740  0.13011522       0.025
   0.00000070  0.10464658  0.13011522       0.025
   0.00000061  0.09156576  0.13011522       0.025
   0.00000052  0.07848493  0.13011522       0.025
   0.00000044  0.06540411  0.13011522       0.025
   0.00000035  0.05232329  0.13011522       0.025
   0.00000026  0.03924247  0.13011522       0.025
   0.00000017  0.02616164  0.13011522       0.025
   0.00000009  0.01308082  0.13011522       0.025
   0.00000000  0.00000000  0.13011522       0.025
   0.00000000  0.00000000  0.13011522       0.025
   0.00000000  0.00000000  0.11565798       0.025
   0.00000000  0.00000000  0.10120073       0.025
   0.00000000  0.00000000  0.08674348       0.025
   0.00000000  0.00000000  0.07228623       0.025
   0.00000000  0.00000000  0.05782899       0.025
   0.00000000  0.00000000  0.04337174       0.025
   0.00000000  0.00000000  0.02891449       0.025
   0.00000000  0.00000000  0.01445725       0.025
   0.00000000  0.00000000  0.00000000       0.025
 
 k-points in reciprocal lattice and weights: kpoint for band-structure G-F-Q-Z-G     
   0.00000000  0.00000000  0.00000000       0.025
   0.00000000  0.05555556  0.00000000       0.025
   0.00000000  0.11111111  0.00000000       0.025
   0.00000000  0.16666667  0.00000000       0.025
   0.00000000  0.22222222  0.00000000       0.025
   0.00000000  0.27777778  0.00000000       0.025
   0.00000000  0.33333333  0.00000000       0.025
   0.00000000  0.38888889  0.00000000       0.025
   0.00000000  0.44444444  0.00000000       0.025
   0.00000000  0.50000000  0.00000000       0.025
   0.00000000  0.50000000  0.00000000       0.025
   0.00000000  0.50000000  0.05555556       0.025
   0.00000000  0.50000000  0.11111111       0.025
   0.00000000  0.50000000  0.16666667       0.025
   0.00000000  0.50000000  0.22222222       0.025
   0.00000000  0.50000000  0.27777778       0.025
   0.00000000  0.50000000  0.33333333       0.025
   0.00000000  0.50000000  0.38888889       0.025
   0.00000000  0.50000000  0.44444444       0.025
   0.00000000  0.50000000  0.50000000       0.025
   0.00000000  0.50000000  0.50000000       0.025
   0.00000000  0.44444444  0.50000000       0.025
   0.00000000  0.38888889  0.50000000       0.025
   0.00000000  0.33333333  0.50000000       0.025
   0.00000000  0.27777778  0.50000000       0.025
   0.00000000  0.22222222  0.50000000       0.025
   0.00000000  0.16666667  0.50000000       0.025
   0.00000000  0.11111111  0.50000000       0.025
   0.00000000  0.05555556  0.50000000       0.025
   0.00000000  0.00000000  0.50000000       0.025
   0.00000000  0.00000000  0.50000000       0.025
   0.00000000  0.00000000  0.44444444       0.025
   0.00000000  0.00000000  0.38888889       0.025
   0.00000000  0.00000000  0.33333333       0.025
   0.00000000  0.00000000  0.27777778       0.025
   0.00000000  0.00000000  0.22222222       0.025
   0.00000000  0.00000000  0.16666667       0.025
   0.00000000  0.00000000  0.11111111       0.025
   0.00000000  0.00000000  0.05555556       0.025
   0.00000000  0.00000000  0.00000000       0.025
 
 position of ions in fractional coordinates (direct lattice) 
   0.99999710  0.00000290  0.07317000
   0.33333290  0.16666710  0.07317000
   0.49999710  0.00000290  0.07317000
   0.83333287  0.16666710  0.07317000
   0.99999710  0.50000290  0.07317000
   0.33333290  0.66666713  0.07317000
   0.49999710  0.50000290  0.07317000
   0.83333287  0.66666713  0.07317000
 
 position of ions in cartesian coordinates  (Angst):
   4.90414464 -0.00002033  0.28117386
   1.22603359  0.70784363  0.28117386
   2.45206167 -0.00000402  0.28117386
   3.67811642  0.70782731  0.28117386
   3.67808903  2.12353766  0.28117386
  -0.00002209  2.83140174  0.28117386
   1.22600606  2.12355397  0.28117386
   2.45206074  2.83138542  0.28117386
 


--------------------------------------------------------------------------------------------------------


 k-point  1 :  0.00000.00000.0000  plane waves:    2001
 k-point  2 :  0.00000.05560.0000  plane waves:    2025
 k-point  3 :  0.00000.11110.0000  plane waves:    2025
 k-point  4 :  0.00000.16670.0000  plane waves:    2021
 k-point  5 :  0.00000.22220.0000  plane waves:    2025
 k-point  6 :  0.00000.27780.0000  plane waves:    2024
 k-point  7 :  0.00000.33330.0000  plane waves:    2016
 k-point  8 :  0.00000.38890.0000  plane waves:    2028
 k-point  9 :  0.00000.44440.0000  plane waves:    2024
 k-point 10 :  0.00000.50000.0000  plane waves:    2024
 k-point 11 :  0.00000.50000.0000  plane waves:    2024
 k-point 12 :  0.00000.50000.0556  plane waves:    2024
 k-point 13 :  0.00000.50000.1111  plane waves:    2026
 k-point 14 :  0.00000.50000.1667  plane waves:    2016
 k-point 15 :  0.00000.50000.2222  plane waves:    2032
 k-point 16 :  0.00000.50000.2778  plane waves:    2040
 k-point 17 :  0.00000.50000.3333  plane waves:    2050
 k-point 18 :  0.00000.50000.3889  plane waves:    2046
 k-point 19 :  0.00000.50000.4444  plane waves:    2028
 k-point 20 :  0.00000.50000.5000  plane waves:    2032
 k-point 21 :  0.00000.50000.5000  plane waves:    2032
 k-point 22 :  0.00000.44440.5000  plane waves:    2040
 k-point 23 :  0.00000.38890.5000  plane waves:    2030
 k-point 24 :  0.00000.33330.5000  plane waves:    2042
 k-point 25 :  0.00000.27780.5000  plane waves:    2036
 k-point 26 :  0.00000.22220.5000  plane waves:    2032
 k-point 27 :  0.00000.16670.5000  plane waves:    2034
 k-point 28 :  0.00000.11110.5000  plane waves:    2030
 k-point 29 :  0.00000.05560.5000  plane waves:    2022
 k-point 30 :  0.00000.00000.5000  plane waves:    2042
 k-point 31 :  0.00000.00000.5000  plane waves:    2042
 k-point 32 :  0.00000.00000.4444  plane waves:    2036
 k-point 33 :  0.00000.00000.3889  plane waves:    2018
 k-point 34 :  0.00000.00000.3333  plane waves:    2024
 k-point 35 :  0.00000.00000.2778  plane waves:    2024
 k-point 36 :  0.00000.00000.2222  plane waves:    2012
 k-point 37 :  0.00000.00000.1667  plane waves:    2012
 k-point 38 :  0.00000.00000.1111  plane waves:    2030
 k-point 39 :  0.00000.00000.0556  plane waves:    2030
 k-point 40 :  0.00000.00000.0000  plane waves:    2001

 maximum and minimum number of plane-waves per node :      2050     2001

 maximum number of plane-waves:      2050
 maximum index in each direction: 
   IXMAX=    8   IYMAX=    8   IZMAX=    7
   IXMIN=   -8   IYMIN=   -9   IZMIN=   -7

 WARNING: aliasing errors must be expected set NGX to  34 to avoid them
 WARNING: aliasing errors must be expected set NGY to  36 to avoid them
 WARNING: aliasing errors must be expected set NGZ to  30 to avoid them
 aliasing errors are usually negligible using standard VASP settings
 and one can safely disregard these warnings

 serial   3D FFT for wavefunctions
 parallel 3D FFT for charge:
    minimum data exchange during FFTs selected (reduces bandwidth)


 total amount of memory used by VASP on root node    39552. kBytes
========================================================================

   base      :      30000. kBytes
   nonl-proj :       5515. kBytes
   fftplans  :        274. kBytes
   grid      :       1021. kBytes
   one-center:         24. kBytes
   wavefun   :       2718. kBytes
 
 initial charge density was supplied:
 number of electron      32.0000023 magnetization 
 keeping initial charge density in first step


--------------------------------------------------------------------------------------------------------


 Maximum index for augmentation-charges          171 (set IRDMAX)


--------------------------------------------------------------------------------------------------------


 First call to EWALD:  gamma=   0.411
 Maximum number of real-space cells 3x 3x 3
 Maximum number of reciprocal cells 3x 3x 3

    FEWALD:  cpu time    0.00: real time    0.00


----------------------------------------- Iteration    1(   1)  ---------------------------------------


    POTLOK:  cpu time    0.01: real time    0.01
    SETDIJ:  cpu time    0.00: real time    0.00
     EDDAV:  cpu time    1.28: real time    1.28
       DOS:  cpu time    0.00: real time    0.00
    --------------------------------------------
      LOOP:  cpu time    1.29: real time    1.31

 eigenvalue-minimisations  :  1920
 total energy-change (2. order) : 0.9480172E+02  (-0.1559653E+04)
 number of electron      32.0000023 magnetization 
 augmentation part       32.0000023 magnetization 

 Free energy of the ion-electron system (eV)
  ---------------------------------------------------
  alpha Z        PSCENC =        65.15269163
  Ewald energy   TEWEN  =      -738.74955668
  -1/2 Hartree   DENC   =      -518.57552971
  -exchange  EXHF       =         0.00000000
  -V(xc)+E(xc)   XCENC  =       116.31825625
  PAW double counting   =       572.18391481     -582.63500242
  entropy T*S    EENTRO =        -0.00713234
  eigenvalues    EBANDS =         3.92670092
  atomic energy  EATOM  =      1177.18737338
  ---------------------------------------------------
  free energy    TOTEN  =        94.80171585 eV

  energy without entropy =       94.80884819  energy(sigma->0) =       94.80528202


--------------------------------------------------------------------------------------------------------


 E-fermi :  13.2353     XC(G=0):  -9.3093     alpha+bet :-10.0341


 k-point   1 :       0.0000    0.0000    0.0000
  band No.  band energies     occupation 
      1     -13.9213      2.00000
      2      -8.6982      2.00000
      3      -7.8677      2.00000
      4      -7.3189      2.00000
      5      -6.9234      2.00000
      6      -6.1880      2.00000
      7      -5.2658      2.00000
      8      -0.5961      2.00000
      9       2.4912      2.00000
     10       4.7534      2.00000
     11       5.6743      2.00000
     12       7.1241      2.00000
     13       8.3383      2.00000
     14       9.8180      2.00000
     15      10.8347      2.00000
     16      12.8938      2.00000
     17      15.1672      0.00000
     18      16.8400      0.00000
     19      17.6521      0.00000
     20      18.5582      0.00000
     21      19.6737      0.00000
     22      21.1591      0.00000
     23      23.1829      0.00000
     24      26.4861      0.00000

 k-point   2 :       0.0000    0.0556    0.0000
  band No.  band energies     occupation 
      1     -14.1380      2.00000
      2      -8.7945      2.00000
      3      -8.0333      2.00000
      4      -7.6290      2.00000
      5      -6.9225      2.00000
      6      -6.1698      2.00000
      7      -4.9320      2.00000
      8      -0.6782      2.00000
      9       1.8272      2.00000
     10       4.3567      2.00000
     11       6.1564      2.00000
     12       7.2693      2.00000
     13       8.1828      2.00000
     14       9.5642      2.00000
     15      11.5509      2.00000
     16      12.2882      2.00000
     17      13.7098      0.00000
     18      14.5485      0.00000
     19      16.9422      0.00000
     20      18.0454      0.00000
     21      20.1321      0.00000
     22      21.3711      0.00000
     23      22.0112      0.00000
     24      26.0591      0.00000

 k-point   3 :       0.0000    0.1111    0.0000
  band No.  band energies     occupation 
      1     -13.7396      2.00000
      2      -9.5586      2.00000
      3      -8.3496      2.00000
      4      -7.6055      2.00000
      5      -6.5777      2.00000
      6      -5.7723      2.00000
      7      -4.3263      2.00000
      8      -0.8446      2.00000
      9       3.4101      2.00000
     10       4.5519      2.00000
     11       6.0823      2.00000
     12       6.3251      2.00000
     13       7.7591      2.00000
     14       9.1129      2.00000
     15      10.8528      2.00000
     16      12.8359      2.00000
     17      14.0408      0.00000
     18      15.0151      0.00000
     19      16.4959      0.00000
     20      18.0959      0.00000
     21      18.6887      0.00000
     22      21.0180      0.00000
     23      24.0850      0.00000
     24      26.4886      0.00000

 k-point   4 :       0.0000    0.1667    0.0000
  band No.  band energies     occupation 
      1     -13.9998      2.00000
      2      -9.6365      2.00000
      3      -8.5881      2.00000
      4      -8.0740      2.00000
      5      -5.4530      2.00000
      6      -5.1404      2.00000
      7      -4.0129      2.00000
      8      -1.1086      2.00000
      9       2.4913      2.00000
     10       4.1557      2.00000
     11       5.3794      2.00000
     12       7.1920      2.00000
     13       8.2140      2.00000
     14       8.3739      2.00000
     15       9.1670      2.00000
     16      12.2451      2.00000
     17      14.0143      0.00000
     18      15.3159      0.00000
     19      16.8999      0.00000
     20      17.7259      0.00000
     21      19.8554      0.00000
     22      21.8683      0.00000
     23      24.2809      0.00000
     24      28.0594      0.00000

 k-point   5 :       0.0000    0.2222    0.0000
  band No.  band energies     occupation 
      1     -13.8309      2.00000
      2      -9.5808      2.00000
      3      -8.4558      2.00000
      4      -7.1618      2.00000
      5      -5.1283      2.00000
      6      -4.2104      2.00000
      7      -2.9335      2.00000
      8      -0.2607      2.00000
      9       2.8008      2.00000
     10       4.9827      2.00000
     11       6.2298      2.00000
     12       7.0858      2.00000
     13       8.1934      2.00000
     14       9.4425      2.00000
     15      10.9052      2.00000
     16      12.4029      2.00000
     17      13.8703      0.00000
     18      14.9248      0.00000
     19      16.5820      0.00000
     20      17.1780      0.00000
     21      18.9914      0.00000
     22      21.2648      0.00000
     23      23.5847      0.00000
     24      26.8080      0.00000

 k-point   6 :       0.0000    0.2778    0.0000
  band No.  band energies     occupation 
      1     -13.4320      2.00000
      2     -10.5947      2.00000
      3      -9.0102      2.00000
      4      -8.2026      2.00000
      5      -5.4663      2.00000
      6      -4.4252      2.00000
      7      -2.6217      2.00000
      8       0.5452      2.00000
      9       1.1732      2.00000
     10       1.6205      2.00000
     11       4.7466      2.00000
     12       5.1924      2.00000
     13       7.3078      2.00000
     14       9.2161      2.00000
     15      11.5984      2.00000
     16      12.9341      1.99998
     17      13.8013      0.00000
     18      14.6502      0.00000
     19      16.3846      0.00000
     20      18.7641      0.00000
     21      19.5543      0.00000
     22      22.1828      0.00000
     23      23.1448      0.00000
     24      26.4662      0.00000

 k-point   7 :       0.0000    0.3333    0.0000
  band No.  band energies     occupation 
      1     -13.4485      2.00000
      2     -11.1431      2.00000
      3      -8.8132      2.00000
      4      -8.3793      2.00000
      5      -4.7761      2.00000
      6      -2.5584      2.00000
      7      -0.5568      2.00000
      8       0.1302      2.00000
      9       1.3496      2.00000
     10       2.8943      2.00000
     11       3.6220      2.00000
     12       6.0631      2.00000
     13       7.8156      2.00000
     14       9.7416      2.00000
     15      10.6854      2.00000
     16      12.4526      2.00000
     17      14.3225      0.00000
     18      16.0993      0.00000
     19      16.8914      0.00000
     20      17.7173      0.00000
     21      20.5201      0.00000
     22      23.5204      0.00000
     23      25.5009      0.00000
     24      28.5784      0.00000

 k-point   8 :       0.0000    0.3889    0.0000
  band No.  band energies     occupation 
      1     -12.9763      2.00000
      2     -11.7668      2.00000
      3      -8.9735      2.00000
      4      -8.1568      2.00000
      5      -4.0819      2.00000
      6      -2.8110      2.00000
      7      -1.4895      2.00000
      8      -0.0754      2.00000
      9       1.0464      2.00000
     10       1.7008      2.00000
     11       3.3967      2.00000
     12       4.5666      2.00000
     13       5.7512      2.00000
     14       8.4379      2.00000
     15       9.7843      2.00000
     16      12.3892      2.00000
     17      13.7533      0.00000
     18      15.0187      0.00000
     19      17.1963      0.00000
     20      18.1225      0.00000
     21      20.2947      0.00000
     22      21.9530      0.00000
     23      24.0212      0.00000
     24      26.6620      0.00000

 k-point   9 :       0.0000    0.4444    0.0000
  band No.  band energies     occupation 
      1     -12.8316      2.00000
      2     -12.2269      2.00000
      3      -8.8664      2.00000
      4      -7.6363      2.00000
      5      -2.7528      2.00000
      6      -2.4023      2.00000
      7      -0.3245      2.00000
      8       0.7029      2.00000
      9       1.5618      2.00000
     10       2.6199      2.00000
     11       4.7042      2.00000
     12       6.2506      2.00000
     13       7.2533      2.00000
     14       9.0727      2.00000
     15      11.0093      2.00000
     16      12.1945      2.00000
     17      13.0875      1.96343
     18      16.2114      0.00000
     19      18.3888      0.00000
     20      19.7842      0.00000
     21      20.3624      0.00000
     22      22.4982      0.00000
     23      24.6539      0.00000
     24      26.0830      0.00000

 k-point  10 :       0.0000    0.5000    0.0000
  band No.  band energies     occupation 
      1     -12.4049      2.00000
      2     -11.5721      2.00000
      3      -9.2426      2.00000
      4      -8.5022      2.00000
      5      -3.2864      2.00000
      6      -1.3460      2.00000
      7      -0.0424      2.00000
      8       0.1822      2.00000
      9       1.3273      2.00000
     10       2.4507      2.00000
     11       4.4830      2.00000
     12       5.5365      2.00000
     13       6.9434      2.00000
     14       8.0178      2.00000
     15       9.4513      2.00000
     16      11.1178      2.00000
     17      13.4133      0.01184
     18      15.3237      0.00000
     19      18.3555      0.00000
     20      18.7635      0.00000
     21      20.9705      0.00000
     22      22.3681      0.00000
     23      24.4449      0.00000
     24      26.8253      0.00000

 k-point  11 :       0.0000    0.5000    0.0000
  band No.  band energies     occupation 
      1     -12.5144      2.00000
      2     -11.8129      2.00000
      3      -9.2676      2.00000
      4      -8.4144      2.00000
      5      -3.6255      2.00000
      6      -1.8010      2.00000
      7      -0.7511      2.00000
      8      -0.2586      2.00000
      9       1.5361      2.00000
     10       3.2817      2.00000
     11       3.8294      2.00000
     12       5.6837      2.00000
     13       6.9304      2.00000
     14       9.3474      2.00000
     15      10.8559      2.00000
     16      12.1259      2.00000
     17      13.0330      1.99579
     18      14.1080      0.00000
     19      16.0903      0.00000
     20      18.6453      0.00000
     21      20.3513      0.00000
     22      22.9882      0.00000
     23      24.1245      0.00000
     24      28.0165      0.00000

 k-point  12 :       0.0000    0.5000    0.0556
  band No.  band energies     occupation 
      1     -13.0019      2.00000
      2     -12.5656      2.00000
      3      -9.7428      2.00000
      4      -8.3279      2.00000
      5      -3.3109      2.00000
      6      -2.5142      2.00000
      7      -1.3375      2.00000
      8       0.3451      2.00000
      9       1.3384      2.00000
     10       3.0784      2.00000
     11       4.4591      2.00000
     12       6.0516      2.00000
     13       6.6812      2.00000
     14       8.5863      2.00000
     15       9.7771      2.00000
     16      11.6044      2.00000
     17      13.2138      1.23957
     18      15.4940      0.00000
     19      17.2847      0.00000
     20      18.7186      0.00000
     21      20.2465      0.00000
     22      23.4854      0.00000
     23      25.3045      0.00000
     24      28.2236      0.00000

 k-point  13 :       0.0000    0.5000    0.1111
  band No.  band energies     occupation 
      1     -12.6728      2.00000
      2     -12.4983      2.00000
      3      -9.2240      2.00000
      4      -8.4848      2.00000
      5      -2.9154      2.00000
      6      -2.7776      2.00000
      7      -0.9339      2.00000
      8       0.2788      2.00000
      9       0.4306      2.00000
     10       2.0249      2.00000
     11       2.9445      2.00000
     12       4.5462      2.00000
     13       6.1409      2.00000
     14       7.7737      2.00000
     15      11.4317      2.00000
     16      11.9159      2.00000
     17      13.0023      1.99902
     18      15.1157      0.00000
     19      15.9489      0.00000
     20      18.1717      0.00000
     21      20.3701      0.00000
     22      22.6389      0.00000
     23      24.9504      0.00000
     24      26.3839      0.00000

 k-point  14 :       0.0000    0.5000    0.1667
  band No.  band energies     occupation 
      1     -12.2704      2.00000
      2     -11.9025      2.00000
      3      -9.1980      2.00000
      4      -7.7119      2.00000
      5      -3.5300      2.00000
      6      -1.8935      2.00000
      7      -1.0960      2.00000
      8       0.1718      2.00000
      9       0.7959      2.00000
     10       1.2431      2.00000
     11       2.9481      2.00000
     12       4.9902      2.00000
     13       7.3205      2.00000
     14       8.2444      2.00000
     15      10.6773      2.00000
     16      12.7899      2.00000
     17      14.5621      0.00000
     18      16.9102      0.00000
     19      18.3788      0.00000
     20      20.2146      0.00000
     21      20.7723      0.00000
     22      23.2068      0.00000
     23      24.7747      0.00000
     24      26.7444      0.00000

 k-point  15 :       0.0000    0.5000    0.2222
  band No.  band energies     occupation 
      1     -12.5315      2.00000
      2     -10.9674      2.00000
      3      -8.9088      2.00000
      4      -7.6536      2.00000
      5      -4.2841      2.00000
      6      -2.8375      2.00000
      7      -1.2417      2.00000
      8      -0.6667      2.00000
      9       0.9945      2.00000
     10       1.5955      2.00000
     11       2.3067      2.00000
     12       4.5032      2.00000
     13       5.4782      2.00000
     14       7.5592      2.00000
     15      10.0587      2.00000
     16      13.1048      1.93515
     17      14.7701      0.00000
     18      15.8178      0.00000
     19      16.6285      0.00000
     20      19.3166      0.00000
     21      21.0244      0.00000
     22      21.8144      0.00000
     23      24.7059      0.00000
     24      29.0485      0.00000

 k-point  16 :       0.0000    0.5000    0.2778
  band No.  band energies     occupation 
      1     -12.9698      2.00000
      2     -11.9582      2.00000
      3      -9.3974      2.00000
      4      -8.8628      2.00000
      5      -3.3377      2.00000
      6      -2.3620      2.00000
      7      -1.5712      2.00000
      8      -0.7423      2.00000
      9       0.1381      2.00000
     10       1.2801      2.00000
     11       2.3938      2.00000
     12       4.9358      2.00000
     13       7.1993      2.00000
     14      10.9302      2.00000
     15      12.8955      2.00000
     16      13.2417      0.92831
     17      14.5271      0.00000
     18      16.0466      0.00000
     19      19.0801      0.00000
     20      21.8363      0.00000
     21      22.3400      0.00000
     22      24.2458      0.00000
     23      24.7801      0.00000
     24      28.8039      0.00000

 k-point  17 :       0.0000    0.5000    0.3333
  band No.  band energies     occupation 
      1     -12.9107      2.00000
      2     -12.4427      2.00000
      3      -9.2137      2.00000
      4      -8.3666      2.00000
      5      -3.5759      2.00000
      6      -3.1845      2.00000
      7      -0.8110      2.00000
      8      -0.3555      2.00000
      9       0.6054      2.00000
     10       1.9196      2.00000
     11       4.0258      2.00000
     12       4.6588      2.00000
     13       6.4641      2.00000
     14       8.0897      2.00000
     15      11.4715      2.00000
     16      13.6686      0.00000
     17      14.9456      0.00000
     18      16.5019      0.00000
     19      17.1088      0.00000
     20      19.3992      0.00000
     21      21.1398      0.00000
     22      22.7674      0.00000
     23      25.9533      0.00000
     24      27.5425      0.00000

 k-point  18 :       0.0000    0.5000    0.3889
  band No.  band energies     occupation 
      1     -12.9690      2.00000
      2     -11.6273      2.00000
      3      -9.1082      2.00000
      4      -7.8025      2.00000
      5      -2.7346      2.00000
      6      -1.7376      2.00000
      7      -1.2719      2.00000
      8       0.0651      2.00000
      9       0.4473      2.00000
     10       1.4315      2.00000
     11       3.1105      2.00000
     12       4.9976      2.00000
     13       6.3062      2.00000
     14       8.9097      2.00000
     15      10.7343      2.00000
     16      13.4031      0.01769
     17      15.8044      0.00000
     18      17.1293      0.00000
     19      18.3267      0.00000
     20      20.1825      0.00000
     21      22.6975      0.00000
     22      23.8561      0.00000
     23      25.6732      0.00000
     24      27.1595      0.00000

 k-point  19 :       0.0000    0.5000    0.4444
  band No.  band energies     occupation 
      1     -12.8451      2.00000
      2     -11.9901      2.00000
      3      -9.3559      2.00000
      4      -8.2143      2.00000
      5      -2.6163      2.00000
      6      -0.8165      2.00000
      7      -0.6249      2.00000
      8       0.1491      2.00000
      9       0.5855      2.00000
     10       2.1849      2.00000
     11       3.3761      2.00000
     12       4.8884      2.00000
     13       7.3302      2.00000
     14       8.6726      2.00000
     15       9.6132      2.00000
     16      11.7394      2.00000
     17      14.1904      0.00000
     18      16.5360      0.00000
     19      18.1200      0.00000
     20      20.0633      0.00000
     21      22.1207      0.00000
     22      23.2156      0.00000
     23      25.3266      0.00000
     24      27.9590      0.00000

 k-point  20 :       0.0000    0.5000    0.5000
  band No.  band energies     occupation 
      1     -12.8550      2.00000
      2     -11.9504      2.00000
      3      -9.4252      2.00000
      4      -8.0944      2.00000
      5      -3.4794      2.00000
      6      -2.1395      2.00000
      7      -1.2746      2.00000
      8      -0.5993      2.00000
      9      -0.1477      2.00000
     10       0.7615      2.00000
     11       1.8623      2.00000
     12       3.5951      2.00000
     13       5.3183      2.00000
     14       7.1726      2.00000
     15       7.9362      2.00000
     16      11.9381      2.00000
     17      15.0697      0.00000
     18      16.8140      0.00000
     19      17.9806      0.00000
     20      19.7463      0.00000
     21      21.0582      0.00000
     22      22.6646      0.00000
     23      24.0993      0.00000
     24      28.0345      0.00000

 k-point  21 :       0.0000    0.5000    0.5000
  band No.  band energies     occupation 
      1     -12.7171      2.00000
      2     -12.3133      2.00000
      3      -8.8517      2.00000
      4      -7.5838      2.00000
      5      -3.6089      2.00000
      6      -1.5907      2.00000
      7      -0.5582      2.00000
      8      -0.2084      2.00000
      9       0.9402      2.00000
     10       1.6763      2.00000
     11       3.3885      2.00000
     12       5.8008      2.00000
     13       6.4495      2.00000
     14       8.4888      2.00000
     15      10.8236      2.00000
     16      13.9583      0.00000
     17      15.5322      0.00000
     18      16.5189      0.00000
     19      19.0768      0.00000
     20      20.8896      0.00000
     21      23.0418      0.00000
     22      23.9656      0.00000
     23      25.9593      0.00000
     24      27.9244      0.00000

 k-point  22 :       0.0000    0.4444    0.5000
  band No.  band energies     occupation 
      1     -12.8408      2.00000
      2     -12.1133      2.00000
      3      -8.9573      2.00000
      4      -8.1275      2.00000
      5      -3.4657      2.00000
      6      -2.3570      2.00000
      7      -1.6729      2.00000
      8      -0.7724      2.00000
      9      -0.1410      2.00000
     10       0.5400      2.00000
     11       2.6581      2.00000
     12       4.7365      2.00000
     13       5.7311      2.00000
     14       7.0535      2.00000
     15      10.7968      2.00000
     16      13.5998      0.00000
     17      15.4694      0.00000
     18      16.1605      0.00000
     19      17.6568      0.00000
     20      19.0511      0.00000
     21      21.2504      0.00000
     22      23.2241      0.00000
     23      24.9207      0.00000
     24      26.7466      0.00000

 k-point  23 :       0.0000    0.3889    0.5000
  band No.  band energies     occupation 
      1     -13.4565      2.00000
      2     -11.4987      2.00000
      3      -9.2786      2.00000
      4      -8.5466      2.00000
      5      -3.4018      2.00000
      6      -2.5708      2.00000
      7      -1.2107      2.00000
      8       0.0871      2.00000
      9       0.6053      2.00000
     10       1.2229      2.00000
     11       3.1285      2.00000
     12       4.8067      2.00000
     13       6.5590      2.00000
     14       7.3691      2.00000
     15       9.5498      2.00000
     16      13.7421      0.00000
     17      16.3608      0.00000
     18      17.6371      0.00000
     19      18.8846      0.00000
     20      19.7200      0.00000
     21      21.7811      0.00000
     22      23.2403      0.00000
     23      24.2931      0.00000
     24      28.5344      0.00000

 k-point  24 :       0.0000    0.3333    0.5000
  band No.  band energies     occupation 
      1     -13.9936      2.00000
      2     -10.9945      2.00000
      3      -7.9004      2.00000
      4      -7.2541      2.00000
      5      -3.1900      2.00000
      6      -2.2677      2.00000
      7      -2.0116      2.00000
      8      -0.2523      2.00000
      9       0.6758      2.00000
     10       2.4429      2.00000
     11       4.5529      2.00000
     12       5.9967      2.00000
     13       7.8233      2.00000
     14      10.2168      2.00000
     15      10.7613      2.00000
     16      14.2849      0.00000
     17      15.0543      0.00000
     18      16.6927      0.00000
     19      18.8315      0.00000
     20      20.1338      0.00000
     21      22.1494      0.00000
     22      23.9035      0.00000
     23      26.5792      0.00000
     24      27.1824      0.00000

 k-point  25 :       0.0000    0.2778    0.5000
  band No.  band energies     occupation 
      1     -13.1934      2.00000
      2     -10.9156      2.00000
      3      -9.1863      2.00000
      4      -7.9862      2.00000
      5      -4.0563      2.00000
      6      -3.3127      2.00000
      7      -2.7398      2.00000
      8      -1.1662      2.00000
      9       1.5687      2.00000
     10       3.3192      2.00000
     11       3.7979      2.00000
     12       5.3161      2.00000
     13       8.5619      2.00000
     14       9.6318      2.00000
     15      11.7111      2.00000
     16      12.5040      2.00000
     17      16.0157      0.00000
     18      17.0473      0.00000
     19      17.8918      0.00000
     20      20.1471      0.00000
     21      21.2996      0.00000
     22      22.5214      0.00000
     23      25.5881      0.00000
     24      27.0590      0.00000

 k-point  26 :       0.0000    0.2222    0.5000
  band No.  band energies     occupation 
      1     -13.9225      2.00000
      2      -9.8181      2.00000
      3      -9.0498      2.00000
      4      -8.1969      2.00000
      5      -5.9313      2.00000
      6      -5.1452      2.00000
      7      -2.5695      2.00000
      8      -1.6351      2.00000
      9       1.5053      2.00000
     10       2.3642      2.00000
     11       4.1702      2.00000
     12       5.4935      2.00000
     13       7.2843      2.00000
     14       8.5482      2.00000
     15      12.1219      2.00000
     16      12.8371      2.00000
     17      14.8932      0.00000
     18      16.0778      0.00000
     19      18.5886      0.00000
     20      19.3703      0.00000
     21      22.2519      0.00000
     22      23.0594      0.00000
     23      23.9053      0.00000
     24      26.5029      0.00000

 k-point  27 :       0.0000    0.1667    0.5000
  band No.  band energies     occupation 
      1     -14.0853      2.00000
      2      -9.1366      2.00000
      3      -8.2181      2.00000
      4      -7.5098      2.00000
      5      -5.6667      2.00000
      6      -3.7112      2.00000
      7      -2.8396      2.00000
      8      -1.9844      2.00000
      9       1.7226      2.00000
     10       2.6963      2.00000
     11       3.3886      2.00000
     12       4.2916      2.00000
     13       7.2668      2.00000
     14       8.1004      2.00000
     15       8.9068      2.00000
     16      11.7978      2.00000
     17      13.2665      0.65930
     18      14.7174      0.00000
     19      17.9516      0.00000
     20      19.7094      0.00000
     21      20.3002      0.00000
     22      22.4122      0.00000
     23      25.8223      0.00000
     24      29.6081      0.00000

 k-point  28 :       0.0000    0.1111    0.5000
  band No.  band energies     occupation 
      1     -13.7736      2.00000
      2      -8.6860      2.00000
      3      -7.7420      2.00000
      4      -7.2665      2.00000
      5      -5.9807      2.00000
      6      -5.5118      2.00000
      7      -4.3515      2.00000
      8      -2.1562      2.00000
      9       1.8395      2.00000
     10       3.3352      2.00000
     11       4.8468      2.00000
     12       6.8800      2.00000
     13       8.2131      2.00000
     14       9.0483      2.00000
     15      10.1650      2.00000
     16      11.9010      2.00000
     17      14.2546      0.00000
     18      16.7776      0.00000
     19      17.5292      0.00000
     20      20.0532      0.00000
     21      20.9182      0.00000
     22      22.5068      0.00000
     23      25.2529      0.00000
     24      27.2838      0.00000

 k-point  29 :       0.0000    0.0556    0.5000
  band No.  band energies     occupation 
      1     -14.4020      2.00000
      2      -8.9728      2.00000
      3      -8.3775      2.00000
      4      -7.0117      2.00000
      5      -6.7123      2.00000
      6      -5.4756      2.00000
      7      -4.1188      2.00000
      8      -2.5777      2.00000
      9       2.4069      2.00000
     10       3.8812      2.00000
     11       5.2432      2.00000
     12       6.6237      2.00000
     13       7.4234      2.00000
     14       8.7743      2.00000
     15       9.7188      2.00000
     16      11.6240      2.00000
     17      14.3060      0.00000
     18      17.1604      0.00000
     19      18.2569      0.00000
     20      20.4435      0.00000
     21      21.1938      0.00000
     22      23.7349      0.00000
     23      24.9841      0.00000
     24      27.5639      0.00000

 k-point  30 :       0.0000    0.0000    0.5000
  band No.  band energies     occupation 
      1     -14.3173      2.00000
      2      -7.9289      2.00000
      3      -7.5352      2.00000
      4      -6.9296      2.00000
      5      -6.6261      2.00000
      6      -5.8096      2.00000
      7      -3.1295      2.00000
      8      -2.1693      2.00000
      9       3.2998      2.00000
     10       4.0448      2.00000
     11       5.0303      2.00000
     12       6.5679      2.00000
     13       8.1195      2.00000
     14       9.4134      2.00000
     15      10.2363      2.00000
     16      11.2363      2.00000
     17      15.4804      0.00000
     18      16.5038      0.00000
     19      18.8242      0.00000
     20      20.7141      0.00000
     21      23.0982      0.00000
     22      24.2763      0.00000
     23      25.2173      0.00000
     24      26.9268      0.00000

 k-point  31 :       0.0000    0.0000    0.5000
  band No.  band energies     occupation 
      1     -14.0914      2.00000
      2      -8.4244      2.00000
      3      -7.8337      2.00000
      4      -7.3288      2.00000
      5      -7.0617      2.00000
      6      -5.9301      2.00000
      7      -4.8972      2.00000
      8      -2.2292      2.00000
      9       2.9244      2.00000
     10       3.8033      2.00000
     11       4.8770      2.00000
     12       6.1738      2.00000
     13       7.4290      2.00000
     14       9.0329      2.00000
     15      10.7208      2.00000
     16      12.3712      2.00000
     17      14.3056      0.00000
     18      16.2161      0.00000
     19      18.7865      0.00000
     20      20.0307      0.00000
     21      22.2644      0.00000
     22      24.2186      0.00000
     23      25.1688      0.00000
     24      27.0524      0.00000

 k-point  32 :       0.0000    0.0000    0.4444
  band No.  band energies     occupation 
      1     -14.3563      2.00000
      2      -8.5726      2.00000
      3      -8.1579      2.00000
      4      -7.3728      2.00000
      5      -6.7196      2.00000
      6      -5.6123      2.00000
      7      -4.5835      2.00000
      8      -2.1188      2.00000
      9       3.2605      2.00000
     10       4.3512      2.00000
     11       5.3943      2.00000
     12       6.7878      2.00000
     13       7.5786      2.00000
     14       8.7725      2.00000
     15      10.4438      2.00000
     16      11.5189      2.00000
     17      12.7661      2.00000
     18      15.9191      0.00000
     19      18.8577      0.00000
     20      20.5072      0.00000
     21      22.7058      0.00000
     22      25.4856      0.00000
     23      27.1575      0.00000
     24      29.6470      0.00000

 k-point  33 :       0.0000    0.0000    0.3889
  band No.  band energies     occupation 
      1     -14.3844      2.00000
      2      -8.1960      2.00000
      3      -7.7739      2.00000
      4      -7.1169      2.00000
      5      -6.2596      2.00000
      6      -6.0554      2.00000
      7      -5.1186      2.00000
      8      -2.1650      2.00000
      9       3.2697      2.00000
     10       4.0793      2.00000
     11       5.8297      2.00000
     12       7.3353      2.00000
     13       7.6486      2.00000
     14       8.3084      2.00000
     15      10.5967      2.00000
     16      11.2576      2.00000
     17      13.7191      0.00000
     18      15.3852      0.00000
     19      16.8805      0.00000
     20      19.3662      0.00000
     21      22.9324      0.00000
     22      24.0780      0.00000
     23      26.3446      0.00000
     24      29.8048      0.00000

 k-point  34 :       0.0000    0.0000    0.3333
  band No.  band energies     occupation 
      1     -13.6025      2.00000
      2      -8.4728      2.00000
      3      -7.9244      2.00000
      4      -7.3282      2.00000
      5      -6.2075      2.00000
      6      -5.8741      2.00000
      7      -4.5612      2.00000
      8      -1.8084      2.00000
      9       2.3387      2.00000
     10       3.8410      2.00000
     11       5.3517      2.00000
     12       6.6026      2.00000
     13       7.4484      2.00000
     14       9.1645      2.00000
     15      10.5118      2.00000
     16      11.8960      2.00000
     17      15.4389      0.00000
     18      17.4744      0.00000
     19      18.4082      0.00000
     20      19.8547      0.00000
     21      23.2926      0.00000
     22      24.5892      0.00000
     23      26.2734      0.00000
     24      28.0894      0.00000

 k-point  35 :       0.0000    0.0000    0.2778
  band No.  band energies     occupation 
      1     -13.4852      2.00000
      2      -8.2251      2.00000
      3      -7.7307      2.00000
      4      -7.2035      2.00000
      5      -6.8408      2.00000
      6      -6.0016      2.00000
      7      -4.6871      2.00000
      8      -1.5713      2.00000
      9       2.8237      2.00000
     10       3.6061      2.00000
     11       4.9769      2.00000
     12       6.5524      2.00000
     13       7.7818      2.00000
     14       8.8304      2.00000
     15      10.7972      2.00000
     16      11.7585      2.00000
     17      13.7855      0.00000
     18      15.3692      0.00000
     19      17.8325      0.00000
     20      19.3386      0.00000
     21      20.2717      0.00000
     22      21.3165      0.00000
     23      23.6337      0.00000
     24      26.5591      0.00000

 k-point  36 :       0.0000    0.0000    0.2222
  band No.  band energies     occupation 
      1     -13.8999      2.00000
      2      -7.9625      2.00000
      3      -7.6782      2.00000
      4      -6.7280      2.00000
      5      -6.4800      2.00000
      6      -6.1196      2.00000
      7      -5.1499      2.00000
      8      -1.8880      2.00000
      9       1.6354      2.00000
     10       4.0425      2.00000
     11       5.3384      2.00000
     12       7.2791      2.00000
     13       9.1304      2.00000
     14       9.9486      2.00000
     15      10.9045      2.00000
     16      11.4129      2.00000
     17      12.7714      2.00000
     18      14.5544      0.00000
     19      16.3849      0.00000
     20      18.1556      0.00000
     21      19.6225      0.00000
     22      21.8539      0.00000
     23      24.1858      0.00000
     24      26.3688      0.00000

 k-point  37 :       0.0000    0.0000    0.1667
  band No.  band energies     occupation 
      1     -13.7719      2.00000
      2      -8.1400      2.00000
      3      -7.6917      2.00000
      4      -7.2882      2.00000
      5      -6.9602      2.00000
      6      -6.2218      2.00000
      7      -4.8244      2.00000
      8      -0.3630      2.00000
      9       4.3239      2.00000
     10       5.1998      2.00000
     11       6.2843      2.00000
     12       7.7966      2.00000
     13       8.8841      2.00000
     14       9.8052      2.00000
     15      10.5901      2.00000
     16      11.9765      2.00000
     17      13.3010      0.35282
     18      14.5738      0.00000
     19      16.2985      0.00000
     20      17.5023      0.00000
     21      19.6445      0.00000
     22      20.8977      0.00000
     23      22.2212      0.00000
     24      27.6363      0.00000

 k-point  38 :       0.0000    0.0000    0.1111
  band No.  band energies     occupation 
      1     -14.0390      2.00000
      2      -8.6990      2.00000
      3      -8.2487      2.00000
      4      -7.6258      2.00000
      5      -6.5020      2.00000
      6      -5.7891      2.00000
      7      -5.3133      2.00000
      8      -1.1802      2.00000
      9       1.4846      2.00000
     10       4.3157      2.00000
     11       5.5324      2.00000
     12       6.5977      2.00000
     13       8.0081      2.00000
     14      10.1274      2.00000
     15      10.4731      2.00000
     16      12.6538      2.00000
     17      13.3733      0.05104
     18      14.5742      0.00000
     19      16.3082      0.00000
     20      17.6001      0.00000
     21      20.0444      0.00000
     22      20.8498      0.00000
     23      23.5041      0.00000
     24      26.2287      0.00000

 k-point  39 :       0.0000    0.0000    0.0556
  band No.  band energies     occupation 
      1     -14.0283      2.00000
      2      -8.3175      2.00000
      3      -7.6964      2.00000
      4      -7.0901      2.00000
      5      -6.4203      2.00000
      6      -5.9902      2.00000
      7      -3.8108      2.00000
      8      -1.0003      2.00000
      9       3.0248      2.00000
     10       4.9711      2.00000
     11       6.0602      2.00000
     12       6.8416      2.00000
     13       8.1193      2.00000
     14       9.6877      2.00000
     15      10.7678      2.00000
     16      12.4190      2.00000
     17      12.9767      1.99975
     18      14.7401      0.00000
     19      16.2943      0.00000
     20      16.9834      0.00000
     21      18.4017      0.00000
     22      21.6882      0.00000
     23      23.2265      0.00000
     24      27.2665      0.00000

 k-point  40 :       0.0000    0.0000    0.0000
  band No.  band energies     occupation 
      1     -13.6711      2.00000
      2      -8.1414      2.00000
      3      -7.6141      2.00000
      4      -6.6224      2.00000
      5      -6.3157      2.00000
      6      -5.8565      2.00000
      7      -4.1376      2.00000
      8      -0.4934      2.00000
      9       3.5377      2.00000
     10       5.2270      2.00000
     11       6.9375      2.00000
     12       8.4262      2.00000
     13       9.0134      2.00000
     14      11.1966      2.00000
     15      12.1561      2.00000
     16      13.2490      0.84632
     17      14.3550      0.00000
     18      16.5465      0.00000
     19      17.3830      0.00000
     20      19.3715      0.00000
     21      20.9024      0.00000
     22      23.1276      0.00000
     23      24.9360      0.00000
     24      28.0256      0.00000


----------------------------------------- Iteration    1(   2)  ---------------------------------------


     EDDAV:  cpu time    1.17: real time    1.17
       DOS:  cpu time    0.00: real time    0.00
    --------------------------------------------
      LOOP:  cpu time    1.17: real time    1.18

 eigenvalue-minimisations  :  2544
 total energy-change (2. order) :-0.1600694E+03  (-0.1549418E+03)
 number of electron      32.0000023 magnetization 
 augmentation part       32.0000023 magnetization 

 Free energy of the ion-electron system (eV)
  ---------------------------------------------------
  alpha Z        PSCENC =        65.15269163
  Ewald energy   TEWEN  =      -738.74955668
  -1/2 Hartree   DENC   =      -518.57552971
  -exchange  EXHF       =         0.00000000
  -V(xc)+E(xc)   XCENC  =       116.31825625
  PAW double counting   =       572.18391481     -582.63500242
  entropy T*S    EENTRO =        -0.00000000
  eigenvalues    EBANDS =      -156.14986529
  atomic energy  EATOM  =      1177.18737338
  ---------------------------------------------------
  free energy    TOTEN  =       -65.26771801 eV

  energy without entropy =      -65.26771801  energy(sigma->0) =      -65.26771801


--------------------------------------------------------------------------------------------------------


 E-fermi :   2.8211     XC(G=0):  -9.3093     alpha+bet :-10.0341


 k-point   1 :       0.0000    0.0000    0.0000
  band No.  band energies     occupation 
      1     -15.5654      2.00000
      2     -10.2479      2.00000
      3     -10.2190      2.00000
      4     -10.1765      2.00000
      5      -9.2144      2.00000
      6      -9.1939      2.00000
      7      -9.1183      2.00000
      8      -3.1680      2.00000
      9      -2.1799      2.00000
     10      -2.0767      2.00000
     11      -1.8583      2.00000
     12       1.4917      2.00000
     13       1.5568      2.00000
     14       2.1048      2.00000
     15       2.1703      2.00000
     16       2.2457      2.00000
     17       6.2357      0.00000
     18       6.3000      0.00000
     19       6.4665      0.00000
     20       7.1376      0.00000
     21      11.7098      0.00000
     22      11.9036      0.00000
     23      12.5084      0.00000
     24      13.8723      0.00000

 k-point   2 :       0.0000    0.0556    0.0000
  band No.  band energies     occupation 
      1     -15.5741      2.00000
      2     -10.4873      2.00000
      3     -10.3224      2.00000
      4     -10.2659      2.00000
      5      -9.1265      2.00000
      6      -9.0969      2.00000
      7      -8.8617      2.00000
      8      -3.1791      2.00000
      9      -2.2449      2.00000
     10      -2.0253      2.00000
     11      -1.8197      2.00000
     12       1.2616      2.00000
     13       1.3942      2.00000
     14       1.9579      2.00000
     15       2.0797      2.00000
     16       2.1222      2.00000
     17       6.2712      0.00000
     18       6.3637      0.00000
     19       6.5123      0.00000
     20       7.2102      0.00000
     21      11.6517      0.00000
     22      11.9661      0.00000
     23      12.8704      0.00000
     24      13.4386      0.00000

 k-point   3 :       0.0000    0.1111    0.0000
  band No.  band energies     occupation 
      1     -15.5025      2.00000
      2     -11.0250      2.00000
      3     -10.4871      2.00000
      4     -10.4110      2.00000
      5      -8.8654      2.00000
      6      -8.8308      2.00000
      7      -8.2809      2.00000
      8      -3.1169      2.00000
      9      -2.2326      2.00000
     10      -2.1512      2.00000
     11      -1.9216      2.00000
     12       1.0778      2.00000
     13       1.2292      2.00000
     14       1.6944      2.00000
     15       2.0506      2.00000
     16       2.0897      2.00000
     17       6.3171      0.00000
     18       6.4063      0.00000
     19       6.8532      0.00000
     20       7.1008      0.00000
     21      11.9110      0.00000
     22      12.1721      0.00000
     23      12.3334      0.00000
     24      13.1811      0.00000

 k-point   4 :       0.0000    0.1667    0.0000
  band No.  band energies     occupation 
      1     -15.4241      2.00000
      2     -11.5304      2.00000
      3     -10.6417      2.00000
      4     -10.6018      2.00000
      5      -8.4954      2.00000
      6      -8.4468      2.00000
      7      -7.6598      2.00000
      8      -3.0176      2.00000
      9      -2.5964      2.00000
     10      -2.4177      2.00000
     11      -1.8717      2.00000
     12       0.7984      2.00000
     13       1.0766      2.00000
     14       1.3073      2.00000
     15       2.0057      2.00000
     16       2.2248      2.00000
     17       6.6484      0.00000
     18       6.8015      0.00000
     19       7.2663      0.00000
     20       8.3798      0.00000
     21      12.0970      0.00000
     22      12.6237      0.00000
     23      13.6158      0.00000
     24      13.7663      0.00000

 k-point   5 :       0.0000    0.2222    0.0000
  band No.  band energies     occupation 
      1     -15.2745      2.00000
      2     -12.0154      2.00000
      3     -10.8170      2.00000
      4     -10.7349      2.00000
      5      -8.1349      2.00000
      6      -8.0602      2.00000
      7      -6.9336      2.00000
      8      -2.8957      2.00000
      9      -2.8378      2.00000
     10      -2.6882      2.00000
     11      -1.6864      2.00000
     12       0.3014      2.00000
     13       0.7867      2.00000
     14       0.9445      2.00000
     15       1.9935      2.00000
     16       2.0814      2.00000
     17       6.7212      0.00000
     18       7.4203      0.00000
     19       7.5035      0.00000
     20       8.4262      0.00000
     21      11.7021      0.00000
     22      12.6882      0.00000
     23      13.2386      0.00000
     24      13.9611      0.00000

 k-point   6 :       0.0000    0.2778    0.0000
  band No.  band energies     occupation 
      1     -15.1098      2.00000
      2     -12.5280      2.00000
      3     -10.9595      2.00000
      4     -10.9049      2.00000
      5      -7.7581      2.00000
      6      -7.7236      2.00000
      7      -6.2115      2.00000
      8      -3.3940      2.00000
      9      -3.3424      2.00000
     10      -2.5916      2.00000
     11      -1.5437      2.00000
     12      -0.2916      2.00000
     13       0.3294      2.00000
     14       0.6840      2.00000
     15       1.8619      2.00000
     16       1.9628      2.00000
     17       6.9306      0.00000
     18       7.4083      0.00000
     19       7.6835      0.00000
     20       9.4658      0.00000
     21      11.1024      0.00000
     22      12.9611      0.00000
     23      13.1723      0.00000
     24      13.8685      0.00000

 k-point   7 :       0.0000    0.3333    0.0000
  band No.  band energies     occupation 
      1     -14.9370      2.00000
      2     -12.9636      2.00000
      3     -11.0652      2.00000
      4     -11.0505      2.00000
      5      -7.3383      2.00000
      6      -7.2146      2.00000
      7      -5.3489      2.00000
      8      -3.8567      2.00000
      9      -3.7378      2.00000
     10      -2.3757      2.00000
     11      -1.4490      2.00000
     12      -0.9845      2.00000
     13      -0.1704      2.00000
     14       0.1688      2.00000
     15       1.8072      2.00000
     16       1.8698      2.00000
     17       7.0391      0.00000
     18       7.1127      0.00000
     19       7.9096      0.00000
     20       9.7054      0.00000
     21      10.5408      0.00000
     22      12.7218      0.00000
     23      12.9116      0.00000
     24      13.0082      0.00000

 k-point   8 :       0.0000    0.3889    0.0000
  band No.  band energies     occupation 
      1     -14.6678      2.00000
      2     -13.3971      2.00000
      3     -11.1673      2.00000
      4     -11.1237      2.00000
      5      -6.8909      2.00000
      6      -6.8275      2.00000
      7      -4.7290      2.00000
      8      -4.2513      2.00000
      9      -4.1532      2.00000
     10      -2.1660      2.00000
     11      -1.7173      2.00000
     12      -1.1354      2.00000
     13      -0.6685      2.00000
     14       0.0028      2.00000
     15       1.6563      2.00000
     16       1.7986      2.00000
     17       7.1950      0.00000
     18       7.2817      0.00000
     19       8.1997      0.00000
     20       9.8848      0.00000
     21      10.3914      0.00000
     22      12.3617      0.00000
     23      12.7836      0.00000
     24      12.9945      0.00000

 k-point   9 :       0.0000    0.4444    0.0000
  band No.  band energies     occupation 
      1     -14.4061      2.00000
      2     -13.7597      2.00000
      3     -11.2131      2.00000
      4     -11.1290      2.00000
      5      -6.5166      2.00000
      6      -6.4032      2.00000
      7      -4.6184      2.00000
      8      -4.6019      2.00000
      9      -3.8381      2.00000
     10      -2.4189      2.00000
     11      -1.8071      2.00000
     12      -1.0090      2.00000
     13      -0.9639      2.00000
     14      -0.2877      2.00000
     15       1.7546      2.00000
     16       1.8625      2.00000
     17       7.3436      0.00000
     18       7.5570      0.00000
     19       8.5490      0.00000
     20       9.4149      0.00000
     21      11.2541      0.00000
     22      12.5238      0.00000
     23      12.7742      0.00000
     24      12.9464      0.00000

 k-point  10 :       0.0000    0.5000    0.0000
  band No.  band energies     occupation 
      1     -14.1073      2.00000
      2     -14.0622      2.00000
      3     -11.2393      2.00000
      4     -11.2070      2.00000
      5      -6.3696      2.00000
      6      -6.2429      2.00000
      7      -4.7557      2.00000
      8      -4.6798      2.00000
      9      -3.2396      2.00000
     10      -3.0473      2.00000
     11      -1.4843      2.00000
     12      -1.4449      2.00000
     13      -0.7404      2.00000
     14      -0.6399      2.00000
     15       1.6720      2.00000
     16       1.7584      2.00000
     17       7.3330      0.00000
     18       7.4038      0.00000
     19       8.9507      0.00000
     20       8.9808      0.00000
     21      11.9445      0.00000
     22      12.2562      0.00000
     23      12.7017      0.00000
     24      12.8539      0.00000

 k-point  11 :       0.0000    0.5000    0.0000
  band No.  band energies     occupation 
      1     -14.1170      2.00000
      2     -14.0677      2.00000
      3     -11.2380      2.00000
      4     -11.1939      2.00000
      5      -6.4225      2.00000
      6      -6.3543      2.00000
      7      -4.7565      2.00000
      8      -4.6500      2.00000
      9      -3.1394      2.00000
     10      -2.9441      2.00000
     11      -1.4636      2.00000
     12      -1.4165      2.00000
     13      -0.6118      2.00000
     14      -0.5796      2.00000
     15       1.7741      2.00000
     16       1.8702      2.00000
     17       7.5475      0.00000
     18       7.7352      0.00000
     19       8.9493      0.00000
     20       8.9839      0.00000
     21      11.9816      0.00000
     22      12.6256      0.00000
     23      12.8452      0.00000
     24      13.1291      0.00000

 k-point  12 :       0.0000    0.5000    0.0556
  band No.  band energies     occupation 
      1     -14.1212      2.00000
      2     -14.1039      2.00000
      3     -11.2425      2.00000
      4     -11.2113      2.00000
      5      -6.3583      2.00000
      6      -6.3126      2.00000
      7      -4.8309      2.00000
      8      -4.6320      2.00000
      9      -3.0475      2.00000
     10      -3.0321      2.00000
     11      -1.5089      2.00000
     12      -1.4093      2.00000
     13      -0.6909      2.00000
     14      -0.3549      2.00000
     15       1.6678      2.00000
     16       1.7359      2.00000
     17       7.3531      0.00000
     18       7.4577      0.00000
     19       9.0564      0.00000
     20       9.1247      0.00000
     21      12.2114      0.00000
     22      12.3920      0.00000
     23      12.8960      0.00000
     24      13.3037      0.00000

 k-point  13 :       0.0000    0.5000    0.1111
  band No.  band energies     occupation 
      1     -14.0994      2.00000
      2     -14.0759      2.00000
      3     -11.2275      2.00000
      4     -11.1937      2.00000
      5      -6.3827      2.00000
      6      -6.3100      2.00000
      7      -4.7921      2.00000
      8      -4.7252      2.00000
      9      -3.1954      2.00000
     10      -3.1444      2.00000
     11      -1.6302      2.00000
     12      -1.5488      2.00000
     13      -0.7075      2.00000
     14      -0.6289      2.00000
     15       1.5738      2.00000
     16       1.6644      2.00000
     17       7.2747      0.00000
     18       7.3677      0.00000
     19       9.2878      0.00000
     20       9.3033      0.00000
     21      11.9047      0.00000
     22      12.3809      0.00000
     23      12.6962      0.00000
     24      12.9956      0.00000

 k-point  14 :       0.0000    0.5000    0.1667
  band No.  band energies     occupation 
      1     -14.0831      2.00000
      2     -14.0469      2.00000
      3     -11.2329      2.00000
      4     -11.1989      2.00000
      5      -6.4151      2.00000
      6      -6.3343      2.00000
      7      -4.8043      2.00000
      8      -4.7294      2.00000
      9      -3.1718      2.00000
     10      -3.1015      2.00000
     11      -1.7213      2.00000
     12      -1.7006      2.00000
     13      -0.7430      2.00000
     14      -0.5784      2.00000
     15       1.4668      2.00000
     16       1.5729      2.00000
     17       7.2174      0.00000
     18       7.4384      0.00000
     19       9.7385      0.00000
     20       9.7811      0.00000
     21      11.7072      0.00000
     22      12.0963      0.00000
     23      13.0587      0.00000
     24      13.2949      0.00000

 k-point  15 :       0.0000    0.5000    0.2222
  band No.  band energies     occupation 
      1     -14.0747      2.00000
      2     -14.0351      2.00000
      3     -11.1977      2.00000
      4     -11.1333      2.00000
      5      -6.4087      2.00000
      6      -6.3256      2.00000
      7      -4.7988      2.00000
      8      -4.6902      2.00000
      9      -3.1938      2.00000
     10      -3.0652      2.00000
     11      -1.8287      2.00000
     12      -1.7867      2.00000
     13      -0.6859      2.00000
     14      -0.5933      2.00000
     15       1.3564      2.00000
     16       1.5149      2.00000
     17       7.5490      0.00000
     18       8.0831      0.00000
     19      10.3788      0.00000
     20      10.5602      0.00000
     21      11.9801      0.00000
     22      12.7116      0.00000
     23      13.0486      0.00000
     24      13.6718      0.00000

 k-point  16 :       0.0000    0.5000    0.2778
  band No.  band energies     occupation 
      1     -14.0673      2.00000
      2     -14.0420      2.00000
      3     -11.2096      2.00000
      4     -11.1748      2.00000
      5      -6.3804      2.00000
      6      -6.2280      2.00000
      7      -4.7762      2.00000
      8      -4.6640      2.00000
      9      -3.2167      2.00000
     10      -3.0494      2.00000
     11      -2.0495      2.00000
     12      -2.0128      2.00000
     13      -0.5647      2.00000
     14      -0.5062      2.00000
     15       1.2900      2.00000
     16       1.3684      2.00000
     17       7.1332      0.00000
     18       7.3122      0.00000
     19      10.9611      0.00000
     20      11.4668      0.00000
     21      12.0908      0.00000
     22      12.6537      0.00000
     23      13.4161      0.00000
     24      14.1942      0.00000

 k-point  17 :       0.0000    0.5000    0.3333
  band No.  band energies     occupation 
      1     -14.0566      2.00000
      2     -14.0458      2.00000
      3     -11.1807      2.00000
      4     -11.1644      2.00000
      5      -6.3742      2.00000
      6      -6.2962      2.00000
      7      -4.7222      2.00000
      8      -4.7028      2.00000
      9      -3.1464      2.00000
     10      -3.1016      2.00000
     11      -2.2173      2.00000
     12      -2.1789      2.00000
     13      -0.7344      2.00000
     14      -0.5694      2.00000
     15       1.1276      2.00000
     16       1.1919      2.00000
     17       6.8715      0.00000
     18       6.9574      0.00000
     19      11.3735      0.00000
     20      11.4477      0.00000
     21      11.9719      0.00000
     22      12.3234      0.00000
     23      12.8765      0.00000
     24      13.5236      0.00000

 k-point  18 :       0.0000    0.5000    0.3889
  band No.  band energies     occupation 
      1     -14.0480      2.00000
      2     -14.0004      2.00000
      3     -11.1609      2.00000
      4     -11.0803      2.00000
      5      -6.3286      2.00000
      6      -6.2274      2.00000
      7      -4.8097      2.00000
      8      -4.7103      2.00000
      9      -3.1828      2.00000
     10      -3.0364      2.00000
     11      -2.3139      2.00000
     12      -2.2657      2.00000
     13      -0.7065      2.00000
     14      -0.4671      2.00000
     15       1.0292      2.00000
     16       1.1047      2.00000
     17       6.9757      0.00000
     18       7.4614      0.00000
     19      11.6426      0.00000
     20      12.1090      0.00000
     21      12.6271      0.00000
     22      12.9719      0.00000
     23      13.7913      0.00000
     24      14.4396      0.00000

 k-point  19 :       0.0000    0.5000    0.4444
  band No.  band energies     occupation 
      1     -14.0358      2.00000
      2     -13.9895      2.00000
      3     -11.1701      2.00000
      4     -11.1364      2.00000
      5      -6.3054      2.00000
      6      -6.1281      2.00000
      7      -4.7187      2.00000
      8      -4.6806      2.00000
      9      -3.1455      2.00000
     10      -3.0307      2.00000
     11      -2.3672      2.00000
     12      -2.3326      2.00000
     13      -0.7313      2.00000
     14      -0.6821      2.00000
     15       1.0016      2.00000
     16       1.0602      2.00000
     17       6.8518      0.00000
     18       7.2082      0.00000
     19      11.8778      0.00000
     20      12.3532      0.00000
     21      12.9147      0.00000
     22      13.3267      0.00000
     23      13.9338      0.00000
     24      14.7407      0.00000

 k-point  20 :       0.0000    0.5000    0.5000
  band No.  band energies     occupation 
      1     -14.0261      2.00000
      2     -14.0097      2.00000
      3     -11.1745      2.00000
      4     -11.1105      2.00000
      5      -6.3435      2.00000
      6      -6.2914      2.00000
      7      -4.8343      2.00000
      8      -4.7464      2.00000
      9      -3.1757      2.00000
     10      -3.1244      2.00000
     11      -2.4138      2.00000
     12      -2.3707      2.00000
     13      -0.7716      2.00000
     14      -0.6188      2.00000
     15       0.8994      2.00000
[...]
      4     -10.2936      2.00000
      5      -9.1296      2.00000
      6      -9.1293      2.00000
      7      -8.9217      2.00000
      8      -4.2504      2.00000
      9      -2.3929      2.00000
     10      -2.3924      2.00000
     11      -2.3167      2.00000
     12       1.0305      2.00000
     13       1.0657      2.00000
     14       1.1296      2.00000
     15       1.2429      2.00000
     16       1.2429      2.00000
     17       5.2245      0.00000
     18       5.2248      0.00000
     19       5.3451      0.00000
     20      11.4385      0.00000
     21      11.6629      0.00000
     22      11.7405      0.00000
     23      11.7419      0.00000
     24      12.5781      0.00000

 k-point  30 :       0.0000    0.0000    0.5000
  band No.  band energies     occupation 
      1     -15.5443      2.00000
      2     -10.2200      2.00000
      3     -10.2199      2.00000
      4     -10.2199      2.00000
      5      -9.2339      2.00000
      6      -9.2336      2.00000
      7      -9.2336      2.00000
      8      -4.2730      2.00000
      9      -2.3351      2.00000
     10      -2.3351      2.00000
     11      -2.3346      2.00000
     12       1.1065      2.00000
     13       1.1073      2.00000
     14       1.2593      2.00000
     15       1.2593      2.00000
     16       1.2594      2.00000
     17       5.1841      0.00000
     18       5.1845      0.00000
     19       5.1845      0.00000
     20      11.4177      0.00000
     21      11.6528      0.00000
     22      11.6529      0.00000
     23      11.6561      0.00000
     24      12.5350      0.00000

 k-point  31 :       0.0000    0.0000    0.5000
  band No.  band energies     occupation 
      1     -15.5443      2.00000
      2     -10.2200      2.00000
      3     -10.2199      2.00000
      4     -10.2199      2.00000
      5      -9.2339      2.00000
      6      -9.2336      2.00000
      7      -9.2336      2.00000
      8      -4.2730      2.00000
      9      -2.3351      2.00000
     10      -2.3351      2.00000
     11      -2.3346      2.00000
     12       1.1065      2.00000
     13       1.1073      2.00000
     14       1.2593      2.00000
     15       1.2593      2.00000
     16       1.2594      2.00000
     17       5.1841      0.00000
     18       5.1845      0.00000
     19       5.1845      0.00000
     20      11.4176      0.00000
     21      11.6528      0.00000
     22      11.6529      0.00000
     23      11.6536      0.00000
     24      12.5350      0.00000

 k-point  32 :       0.0000    0.0000    0.4444
  band No.  band energies     occupation 
      1     -15.5474      2.00000
      2     -10.2221      2.00000
      3     -10.2220      2.00000
      4     -10.2220      2.00000
      5      -9.2357      2.00000
      6      -9.2354      2.00000
      7      -9.2354      2.00000
      8      -4.2469      2.00000
      9      -2.3355      2.00000
     10      -2.3355      2.00000
     11      -2.3350      2.00000
     12       1.1064      2.00000
     13       1.1071      2.00000
     14       1.2773      2.00000
     15       1.2773      2.00000
     16       1.2773      2.00000
     17       5.2081      0.00000
     18       5.2085      0.00000
     19       5.2085      0.00000
     20      11.1827      0.00000
     21      11.6484      0.00000
     22      11.6486      0.00000
     23      11.6492      0.00000
     24      12.5344      0.00000

 k-point  33 :       0.0000    0.0000    0.3889
  band No.  band energies     occupation 
      1     -15.5565      2.00000
      2     -10.2283      2.00000
      3     -10.2282      2.00000
      4     -10.2282      2.00000
      5      -9.2408      2.00000
      6      -9.2405      2.00000
      7      -9.2405      2.00000
      8      -4.1710      2.00000
      9      -2.3367      2.00000
     10      -2.3367      2.00000
     11      -2.3362      2.00000
     12       1.1056      2.00000
     13       1.1064      2.00000
     14       1.3293      2.00000
     15       1.3293      2.00000
     16       1.3293      2.00000
     17       5.2785      0.00000
     18       5.2789      0.00000
     19       5.2789      0.00000
     20      10.5992      0.00000
     21      11.6357      0.00000
     22      11.6362      0.00000
     23      11.6383      0.00000
     24      12.5312      0.00000

 k-point  34 :       0.0000    0.0000    0.3333
  band No.  band energies     occupation 
      1     -15.5703      2.00000
      2     -10.2378      2.00000
      3     -10.2377      2.00000
      4     -10.2377      2.00000
      5      -9.2486      2.00000
      6      -9.2484      2.00000
      7      -9.2484      2.00000
      8      -4.0517      2.00000
      9      -2.3386      2.00000
     10      -2.3386      2.00000
     11      -2.3381      2.00000
     12       1.1045      2.00000
     13       1.1053      2.00000
     14       1.4103      2.00000
     15       1.4103      2.00000
     16       1.4103      2.00000
     17       5.3894      0.00000
     18       5.3898      0.00000
     19       5.3898      0.00000
     20       9.8658      0.00000
     21      11.6164      0.00000
     22      11.6166      0.00000
     23      11.6179      0.00000
     24      12.5271      0.00000

 k-point  35 :       0.0000    0.0000    0.2778
  band No.  band energies     occupation 
      1     -15.5871      2.00000
      2     -10.2493      2.00000
      3     -10.2492      2.00000
      4     -10.2492      2.00000
      5      -9.2582      2.00000
      6      -9.2579      2.00000
      7      -9.2579      2.00000
      8      -3.8998      2.00000
      9      -2.3408      2.00000
     10      -2.3408      2.00000
     11      -2.3403      2.00000
     12       1.1032      2.00000
     13       1.1040      2.00000
     14       1.5121      2.00000
     15       1.5121      2.00000
     16       1.5121      2.00000
     17       5.5309      0.00000
     18       5.5313      0.00000
     19       5.5313      0.00000
     20       9.1130      0.00000
     21      11.5928      0.00000
     22      11.5932      0.00000
     23      11.5956      0.00000
     24      12.5220      0.00000

 k-point  36 :       0.0000    0.0000    0.2222
  band No.  band energies     occupation 
      1     -15.6049      2.00000
      2     -10.2615      2.00000
      3     -10.2614      2.00000
      4     -10.2614      2.00000
      5      -9.2683      2.00000
      6      -9.2680      2.00000
      7      -9.2680      2.00000
      8      -3.7308      2.00000
      9      -2.3432      2.00000
     10      -2.3432      2.00000
     11      -2.3427      2.00000
     12       1.1018      2.00000
     13       1.1026      2.00000
     14       1.6235      2.00000
     15       1.6235      2.00000
     16       1.6235      2.00000
     17       5.6891      0.00000
     18       5.6894      0.00000
     19       5.6894      0.00000
     20       8.4152      0.00000
     21      11.5680      0.00000
     22      11.5684      0.00000
     23      11.5697      0.00000
     24      12.5168      0.00000

 k-point  37 :       0.0000    0.0000    0.1667
  band No.  band energies     occupation 
      1     -15.6214      2.00000
      2     -10.2729      2.00000
      3     -10.2728      2.00000
      4     -10.2728      2.00000
      5      -9.2777      2.00000
      6      -9.2775      2.00000
      7      -9.2775      2.00000
      8      -3.5641      2.00000
      9      -2.3455      2.00000
     10      -2.3455      2.00000
     11      -2.3450      2.00000
     12       1.1005      2.00000
     13       1.1012      2.00000
     14       1.7314      2.00000
     15       1.7314      2.00000
     16       1.7314      2.00000
     17       5.8458      0.00000
     18       5.8462      0.00000
     19       5.8462      0.00000
     20       7.8207      0.00000
     21      11.5447      0.00000
     22      11.5449      0.00000
     23      11.5455      0.00000
     24      12.5120      0.00000

 k-point  38 :       0.0000    0.0000    0.1111
  band No.  band energies     occupation 
      1     -15.6349      2.00000
      2     -10.2822      2.00000
      3     -10.2820      2.00000
      4     -10.2820      2.00000
      5      -9.2854      2.00000
      6      -9.2852      2.00000
      7      -9.2852      2.00000
      8      -3.4218      2.00000
      9      -2.3473      2.00000
     10      -2.3473      2.00000
     11      -2.3468      2.00000
     12       1.0994      2.00000
     13       1.1001      2.00000
     14       1.8217      2.00000
     15       1.8217      2.00000
     16       1.8217      2.00000
     17       5.9802      0.00000
     18       5.9805      0.00000
     19       5.9805      0.00000
     20       7.3658      0.00000
     21      11.5257      0.00000
     22      11.5259      0.00000
     23      11.5278      0.00000
     24      12.5074      0.00000

 k-point  39 :       0.0000    0.0000    0.0556
  band No.  band energies     occupation 
      1     -15.6436      2.00000
      2     -10.2882      2.00000
      3     -10.2881      2.00000
      4     -10.2881      2.00000
      5      -9.2904      2.00000
      6      -9.2902      2.00000
      7      -9.2902      2.00000
      8      -3.3253      2.00000
      9      -2.3485      2.00000
     10      -2.3485      2.00000
     11      -2.3480      2.00000
     12       1.0986      2.00000
     13       1.0994      2.00000
     14       1.8819      2.00000
     15       1.8819      2.00000
     16       1.8819      2.00000
     17       6.0716      0.00000
     18       6.0719      0.00000
     19       6.0719      0.00000
     20       7.0795      0.00000
     21      11.5132      0.00000
     22      11.5136      0.00000
     23      11.5140      0.00000
     24      12.5045      0.00000

 k-point  40 :       0.0000    0.0000    0.0000
  band No.  band energies     occupation 
      1     -15.6466      2.00000
      2     -10.2902      2.00000
      3     -10.2901      2.00000
      4     -10.2901      2.00000
      5      -9.2921      2.00000
      6      -9.2919      2.00000
      7      -9.2919      2.00000
      8      -3.2911      2.00000
      9      -2.3489      2.00000
     10      -2.3489      2.00000
     11      -2.3484      2.00000
     12       1.0984      2.00000
     13       1.0992      2.00000
     14       1.9031      2.00000
     15       1.9031      2.00000
     16       1.9031      2.00000
     17       6.1041      0.00000
     18       6.1044      0.00000
     19       6.1044      0.00000
     20       6.9817      0.00000
     21      11.5089      0.00000
     22      11.5093      0.00000
     23      11.5099      0.00000
     24      12.5036      0.00000


--------------------------------------------------------------------------------------------------------


 soft charge-density along one line, spin component           1
         0         1         2         3         4         5         6         7         8         9
 total charge-density along one line
 
 pseudopotential strength for first ion, spin component:           1
  9.806   0.006   0.000   0.000  -0.000  -0.000  -0.000   0.000
  0.006  -0.002  -0.000  -0.000   0.000  -0.000  -0.000   0.000
  0.000  -0.000  -3.968  -0.000   0.000  -0.016  -0.000   0.000
  0.000  -0.000  -0.000  -3.959   0.000  -0.000  -0.013   0.000
 -0.000   0.000   0.000   0.000  -3.968   0.000   0.000  -0.016
 -0.000  -0.000  -0.016  -0.000   0.000  -0.764  -0.000   0.000
 -0.000  -0.000  -0.000  -0.013   0.000  -0.000  -0.764   0.000
  0.000   0.000   0.000   0.000  -0.016   0.000   0.000  -0.764
 total augmentation occupancy for first ion, spin component:           1
  2.000   0.000   0.000   0.000   0.000   0.000   0.000   0.000
  0.000   0.000   0.000   0.000   0.000   0.000   0.000   0.000
  0.000   0.000   0.667   0.000   0.000   0.000   0.000   0.000
  0.000   0.000   0.000   0.667   0.000   0.000   0.000   0.000
  0.000   0.000   0.000   0.000   0.667   0.000   0.000   0.000
  0.000   0.000   0.000   0.000   0.000   0.000   0.000   0.000
  0.000   0.000   0.000   0.000   0.000   0.000   0.000   0.000
  0.000   0.000   0.000   0.000   0.000   0.000   0.000   0.000


------------------------ aborting loop because EDIFF is reached ----------------------------------------


 


 total charge     
 
# of ion     s       p       d       tot
----------------------------------------
  1        0.850   1.826   0.000   2.676
  2        0.850   1.827   0.000   2.676
  3        0.850   1.826   0.000   2.676
  4        0.850   1.827   0.000   2.676
  5        0.850   1.826   0.000   2.676
  6        0.850   1.827   0.000   2.676
  7        0.850   1.826   0.000   2.676
  8        0.850   1.827   0.000   2.676
------------------------------------------------
tot        6.799  14.612   0.000  21.411
 
    CHARGE:  cpu time    0.08: real time    0.08
    FORLOC:  cpu time    0.00: real time    0.00
    FORNL :  cpu time    0.15: real time    0.15
    STRESS:  cpu time    0.55: real time    0.56
    FORHAR:  cpu time    0.00: real time    0.00

  FORCE on cell =-STRESS in cart. coord.  units (eV):
  Direction    XX          YY          ZZ          XY          YZ          ZX
  --------------------------------------------------------------------------------------
  Alpha Z    65.15269    65.15269    65.15269
  Ewald     342.69539   342.68108 -1424.12721    -0.01239    -0.00000    -0.00000
  Hartree   459.66993   460.24402  -414.11556     0.49718     0.00000    -0.00000
  E(xc)    -117.92801  -117.92809  -122.61103    -0.00006    -0.00000     0.00000
  Local   -1198.18765 -1197.73259  1372.52493     0.39409    -0.00000     0.00000
  n-local   -33.29456   -32.79153   -29.17448    -0.01151    -0.00000    -0.00001
  augment    -3.34587    -3.35820    -3.07556    -0.01068     0.00000    -0.00001
  Kinetic   502.39454   478.85629   550.02007     0.00444    -0.00003     0.00005
  Fock        0.00000     0.00000     0.00000     0.00000     0.00000     0.00000
  -------------------------------------------------------------------------------------
  Total       8.52111     3.75902    -5.40613    -4.12409     0.00000    -0.00000
  in kB     170.57181    75.24639  -108.21758   -82.55423     0.00000    -0.00000
  external pressure =       45.87 kB  Pullay stress =        0.00 kB


 VOLUME and BASIS-vectors are now :
 -----------------------------------------------------------------------------
  energy-cutoff  :      500.00
  volume of cell :       80.04
      direct lattice vectors                 reciprocal lattice vectors
     4.904165939 -0.000032625  0.000000000     0.203909055  0.117728756  0.000000000
    -2.452111223  4.247115975  0.000000000     0.000001566  0.235454800  0.000000000
     0.000000000  0.000000000  3.842747929     0.000000000  0.000000000  0.260230444

  length of vectors
     4.904165939  4.904165939  3.842747929     0.235454800  0.235454800  0.260230444


 FORCES acting on ions
    electron-ion (+dipol)            ewald-force                    non-local-force                 convergence-correction
 -----------------------------------------------------------------------------------------------
   0.779E+00 -.450E+00 -.702E-04   0.321E-03 -.148E-03 -.302E-15   -.308E+00 0.178E+00 0.325E-18   -.179E+00 0.103E+00 0.133E-04
   -.776E+00 0.448E+00 -.184E-04   -.335E-03 0.193E-03 -.258E-15   0.308E+00 -.178E+00 0.108E-18   0.179E+00 -.103E+00 0.110E-04
   0.779E+00 -.450E+00 -.702E-04   0.308E-03 -.178E-03 0.152E-16   -.308E+00 0.178E+00 0.325E-18   -.179E+00 0.103E+00 0.133E-04
   -.776E+00 0.448E+00 -.184E-04   -.289E-03 0.203E-03 0.681E-16   0.308E+00 -.178E+00 0.136E-18   0.179E+00 -.103E+00 0.110E-04
   0.779E+00 -.450E+00 -.702E-04   0.302E-03 -.174E-03 -.114E-15   -.308E+00 0.178E+00 0.325E-18   -.179E+00 0.103E+00 0.133E-04
   -.776E+00 0.448E+00 -.184E-04   -.320E-03 0.148E-03 -.496E-15   0.308E+00 -.178E+00 0.379E-18   0.179E+00 -.103E+00 0.110E-04
   0.779E+00 -.450E+00 -.702E-04   0.288E-03 -.204E-03 -.204E-15   -.308E+00 0.178E+00 0.325E-18   -.179E+00 0.103E+00 0.133E-04
   -.776E+00 0.448E+00 -.184E-04   -.274E-03 0.158E-03 -.148E-15   0.308E+00 -.178E+00 -.136E-18   0.179E+00 -.103E+00 0.110E-04
 -----------------------------------------------------------------------------------------------
   0.106E-01 -.614E-02 -.354E-03   0.191E-13 -.401E-13 -.144E-14   -.111E-15 0.555E-16 0.179E-17   0.212E-05 -.123E-05 0.969E-04
 
 
 POSITION                                       TOTAL-FORCE (eV/Angst)
 -----------------------------------------------------------------------------------
      4.90414     -0.00002      0.28117         0.290962     -0.167987     -0.000000
      1.22603      0.70784      0.28117        -0.290962      0.167987     -0.000000
      2.45206     -0.00000      0.28117         0.290962     -0.167987      0.000000
      3.67812      0.70783      0.28117        -0.290962      0.167987      0.000000
      3.67809      2.12354      0.28117         0.290962     -0.167987     -0.000000
     -0.00002      2.83140      0.28117        -0.290962      0.167987     -0.000000
      1.22601      2.12355      0.28117         0.290962     -0.167987      0.000000
      2.45206      2.83139      0.28117        -0.290962      0.167987      0.000000
 -----------------------------------------------------------------------------------
    total drift:                                0.010615     -0.006137     -0.000258


--------------------------------------------------------------------------------------------------------



  FREE ENERGIE OF THE ION-ELECTRON SYSTEM (eV)
  ---------------------------------------------------
  free  energy   TOTEN  =       -71.152755 eV

  energy  without entropy=      -71.152755  energy(sigma->0) =      -71.152755
 


--------------------------------------------------------------------------------------------------------


    POTLOK:  cpu time    0.01: real time    0.01


--------------------------------------------------------------------------------------------------------


 stress matrix after NEB project (eV)
      8.52111     -4.12409     -0.00000
     -4.12409      3.75902      0.00000
      0.00000      0.00000     -5.40613
  FORCES: max atom, RMS     0.335974    0.335974
  FORCE total and by dimension    0.950277    0.290962
  Stress total and by dimension   12.246717    8.521110
 writing wavefunctions
     LOOP+:  cpu time    8.24: real time    8.35
    4ORBIT:  cpu time    0.00: real time    0.00
 


 total charge     
 
# of ion     s       p       d       tot
----------------------------------------
  1        0.850   1.826   0.000   2.676
  2        0.850   1.827   0.000   2.676
  3        0.850   1.826   0.000   2.676
  4        0.850   1.827   0.000   2.676
  5        0.850   1.826   0.000   2.676
  6        0.850   1.827   0.000   2.676
  7        0.850   1.826   0.000   2.676
  8        0.850   1.827   0.000   2.676
------------------------------------------------
tot        6.799  14.612   0.000  21.411
 

 total amount of memory used by VASP on root node    39552. kBytes
========================================================================

   base      :      30000. kBytes
   nonl-proj :       5515. kBytes
   fftplans  :        274. kBytes
   grid      :       1021. kBytes
   one-center:         24. kBytes
   wavefun   :       2718. kBytes
 
  
  
 General timing and accounting informations for this job:
 ========================================================
  
                  Total CPU time used (sec):        8.991
                            User time (sec):        8.882
                          System time (sec):        0.109
                         Elapsed time (sec):        9.127
  
                   Maximum memory used (kb):       45220.
                   Average memory used (kb):           0.
  
                          Minor page faults:        22923
                          Major page faults:            8
                 Voluntary context switches:          260
