PROCAR lm decomposed
# of k-points:   40         # of bands:  24         # of ions:   8

 k-point    1 :    0.00000000 0.00000000 0.00000000     weight = 0.02500000

band   1 # energy  -15.64657019 # occ.  2.00000000
 
ion      s     py     pz     px    dxy    dyz    dz2    dxz    dx2    tot
  1  0.080  0.000  0.000  0.000  0.000  0.000  0.000  0.000  0.000  0.080
  2  0.080  0.000  0.000  0.000  0.000  0.000  0.000  0.000  0.000  0.080
  3  0.080  0.000  0.000  0.000  0.000  0.000  0.000  0.000  0.000  0.080
  4  0.080  0.000  0.000  0.000  0.000  0.000  0.000  0.000  0.000  0.080
  5  0.080  0.000  0.000  0.000  0.000  0.000  0.000  0.000  0.000  0.080
  6  0.080  0.000  0.000  0.000  0.000  0.000  0.000  0.000  0.000  0.080
  7  0.080  0.000  0.000  0.000  0.000  0.000  0.000  0.000  0.000  0.080
  8  0.080  0.000  0.000  0.000  0.000  0.000  0.000  0.000  0.000  0.080
tot  0.642  0.000  0.000  0.000  0.000  0.000  0.000  0.000  0.000  0.642
 
band   2 # energy  -10.29021356 # occ.  2.00000000
 
ion      s     py     pz     px    dxy    dyz    dz2    dxz    dx2    tot
  1  0.075  0.004  0.000  0.012  0.000  0.000  0.000  0.000  0.000  0.091
  2  0.073  0.004  0.000  0.012  0.000  0.000  0.000  0.000  0.000  0.089
  3  0.077  0.004  0.000  0.012  0.000  0.000  0.000  0.000  0.000  0.092
  4  0.075  0.004  0.000  0.012  0.000  0.000  0.000  0.000  0.000  0.091
  5  0.073  0.004  0.000  0.012  0.000  0.000  0.000  0.000  0.000  0.089
  6  0.075  0.004  0.000  0.012  0.000  0.000  0.000  0.000  0.000  0.091
  7  0.075  0.004  0.000  0.012  0.000  0.000  0.000  0.000  0.000  0.091
  8  0.077  0.004  0.000  0.012  0.000  0.000  0.000  0.000  0.000  0.092
tot  0.600  0.032  0.000  0.096  0.000  0.000  0.000  0.000  0.000  0.727
 
band   3 # energy  -10.29010250 # occ.  2.00000000
 
ion      s     py     pz     px    dxy    dyz    dz2    dxz    dx2    tot
  1  0.150  0.002  0.000  0.006  0.000  0.000  0.000  0.000  0.000  0.158
  2  0.000  0.018  0.000  0.006  0.000  0.000  0.000  0.000  0.000  0.024
  3  0.000  0.018  0.000  0.006  0.000  0.000  0.000  0.000  0.000  0.024
  4  0.150  0.002  0.000  0.006  0.000  0.000  0.000  0.000  0.000  0.158
  5  0.000  0.018  0.000  0.006  0.000  0.000  0.000  0.000  0.000  0.024
  6  0.150  0.002  0.000  0.006  0.000  0.000  0.000  0.000  0.000  0.158
  7  0.150  0.002  0.000  0.006  0.000  0.000  0.000  0.000  0.000  0.158
  8  0.000  0.018  0.000  0.006  0.000  0.000  0.000  0.000  0.000  0.024
tot  0.600  0.078  0.000  0.050  0.000  0.000  0.000  0.000  0.000  0.727
 
band   4 # energy  -10.29010249 # occ.  2.00000000
 
ion      s     py     pz     px    dxy    dyz    dz2    dxz    dx2    tot
  1  0.000  0.018  0.000  0.006  0.000  0.000  0.000  0.000  0.000  0.024
  2  0.151  0.002  0.000  0.006  0.000  0.000  0.000  0.000  0.000  0.159
  3  0.148  0.002  0.000  0.006  0.000  0.000  0.000  0.000  0.000  0.156
  4  0.000  0.018  0.000  0.006  0.000  0.000  0.000  0.000  0.000  0.024
  5  0.151  0.002  0.000  0.006  0.000  0.000  0.000  0.000  0.000  0.159
  6  0.000  0.018  0.000  0.006  0.000  0.000  0.000  0.000  0.000  0.024
  7  0.000  0.018  0.000  0.006  0.000  0.000  0.000  0.000  0.000  0.024
  8  0.148  0.002  0.000  0.006  0.000  0.000  0.000  0.000  0.000  0.156
tot  0.600  0.082  0.000  0.046  0.000  0.000  0.000  0.000  0.000  0.727
 
band   5 # energy   -9.29213506 # occ.  2.00000000
 
ion      s     py     pz     px    dxy    dyz    dz2    dxz    dx2    tot
  1  0.034  0.012  0.000  0.037  0.000  0.000  0.000  0.000  0.000  0.083
  2  0.034  0.012  0.000  0.037  0.000  0.000  0.000  0.000  0.000  0.083
  3  0.034  0.012  0.000  0.037  0.000  0.000  0.000  0.000  0.000  0.083
  4  0.034  0.012  0.000  0.037  0.000  0.000  0.000  0.000  0.000  0.083
  5  0.034  0.012  0.000  0.037  0.000  0.000  0.000  0.000  0.000  0.083
  6  0.034  0.012  0.000  0.037  0.000  0.000  0.000  0.000  0.000  0.083
  7  0.034  0.012  0.000  0.037  0.000  0.000  0.000  0.000  0.000  0.083
  8  0.034  0.012  0.000  0.037  0.000  0.000  0.000  0.000  0.000  0.083
tot  0.273  0.098  0.000  0.295  0.000  0.000  0.000  0.000  0.000  0.667
 
band   6 # energy   -9.29188108 # occ.  2.00000000
 
ion      s     py     pz     px    dxy    dyz    dz2    dxz    dx2    tot
  1  0.047  0.024  0.000  0.016  0.000  0.000  0.000  0.000  0.000  0.087
  2  0.021  0.043  0.000  0.016  0.000  0.000  0.000  0.000  0.000  0.080
  3  0.021  0.043  0.000  0.016  0.000  0.000  0.000  0.000  0.000  0.080
  4  0.047  0.024  0.000  0.016  0.000  0.000  0.000  0.000  0.000  0.087
  5  0.021  0.043  0.000  0.016  0.000  0.000  0.000  0.000  0.000  0.080
  6  0.047  0.024  0.000  0.016  0.000  0.000  0.000  0.000  0.000  0.087
  7  0.047  0.024  0.000  0.016  0.000  0.000  0.000  0.000  0.000  0.087
  8  0.021  0.043  0.000  0.016  0.000  0.000  0.000  0.000  0.000  0.080
tot  0.273  0.269  0.000  0.124  0.000  0.000  0.000  0.000  0.000  0.667
 
band   7 # energy   -9.29188108 # occ.  2.00000000
 
ion      s     py     pz     px    dxy    dyz    dz2    dxz    dx2    tot
  1  0.021  0.037  0.000  0.021  0.000  0.000  0.000  0.000  0.000  0.080
  2  0.047  0.018  0.000  0.021  0.000  0.000  0.000  0.000  0.000  0.087
  3  0.048  0.018  0.000  0.021  0.000  0.000  0.000  0.000  0.000  0.087
  4  0.021  0.037  0.000  0.021  0.000  0.000  0.000  0.000  0.000  0.080
  5  0.047  0.018  0.000  0.021  0.000  0.000  0.000  0.000  0.000  0.087
  6  0.021  0.037  0.000  0.021  0.000  0.000  0.000  0.000  0.000  0.080
  7  0.021  0.037  0.000  0.021  0.000  0.000  0.000  0.000  0.000  0.080
  8  0.048  0.018  0.000  0.021  0.000  0.000  0.000  0.000  0.000  0.087
tot  0.273  0.223  0.000  0.171  0.000  0.000  0.000  0.000  0.000  0.667
 
band   8 # energy   -3.29109433 # occ.  2.00000000
 
ion      s     py     pz     px    dxy    dyz    dz2    dxz    dx2    tot
  1  0.000  0.000  0.058  0.000  0.000  0.000  0.000  0.000  0.000  0.058
  2  0.000  0.000  0.058  0.000  0.000  0.000  0.000  0.000  0.000  0.058
  3  0.000  0.000  0.058  0.000  0.000  0.000  0.000  0.000  0.000  0.058
  4  0.000  0.000  0.058  0.000  0.000  0.000  0.000  0.000  0.000  0.058
  5  0.000  0.000  0.058  0.000  0.000  0.000  0.000  0.000  0.000  0.058
  6  0.000  0.000  0.058  0.000  0.000  0.000  0.000  0.000  0.000  0.058
  7  0.000  0.000  0.058  0.000  0.000  0.000  0.000  0.000  0.000  0.058
  8  0.000  0.000  0.058  0.000  0.000  0.000  0.000  0.000  0.000  0.058
tot  0.000  0.000  0.468  0.000  0.000  0.000  0.000  0.000  0.000  0.468
 
band   9 # energy   -2.34894375 # occ.  2.00000000
 
ion      s     py     pz     px    dxy    dyz    dz2    dxz    dx2    tot
  1  0.000  0.063  0.000  0.032  0.000  0.000  0.000  0.000  0.000  0.095
  2  0.000  0.063  0.000  0.039  0.000  0.000  0.000  0.000  0.000  0.102
  3  0.000  0.063  0.000  0.039  0.000  0.000  0.000  0.000  0.000  0.102
  4  0.000  0.063  0.000  0.033  0.000  0.000  0.000  0.000  0.000  0.095
  5  0.000  0.063  0.000  0.039  0.000  0.000  0.000  0.000  0.000  0.102
  6  0.000  0.063  0.000  0.032  0.000  0.000  0.000  0.000  0.000  0.095
  7  0.000  0.063  0.000  0.033  0.000  0.000  0.000  0.000  0.000  0.095
  8  0.000  0.063  0.000  0.039  0.000  0.000  0.000  0.000  0.000  0.102
tot  0.000  0.503  0.000  0.287  0.000  0.000  0.000  0.000  0.000  0.790
 
band  10 # energy   -2.34894375 # occ.  2.00000000
 
ion      s     py     pz     px    dxy    dyz    dz2    dxz    dx2    tot
  1  0.000  0.011  0.000  0.091  0.000  0.000  0.000  0.000  0.000  0.102
  2  0.000  0.011  0.000  0.084  0.000  0.000  0.000  0.000  0.000  0.095
  3  0.000  0.011  0.000  0.084  0.000  0.000  0.000  0.000  0.000  0.095
  4  0.000  0.011  0.000  0.091  0.000  0.000  0.000  0.000  0.000  0.102
  5  0.000  0.011  0.000  0.084  0.000  0.000  0.000  0.000  0.000  0.095
  6  0.000  0.011  0.000  0.091  0.000  0.000  0.000  0.000  0.000  0.102
  7  0.000  0.011  0.000  0.091  0.000  0.000  0.000  0.000  0.000  0.102
  8  0.000  0.011  0.000  0.084  0.000  0.000  0.000  0.000  0.000  0.095
tot  0.000  0.089  0.000  0.700  0.000  0.000  0.000  0.000  0.000  0.790
 
band  11 # energy   -2.34844478 # occ.  2.00000000
 
ion      s     py     pz     px    dxy    dyz    dz2    dxz    dx2    tot
  1  0.000  0.074  0.000  0.025  0.000  0.000  0.000  0.000  0.000  0.099
  2  0.000  0.074  0.000  0.025  0.000  0.000  0.000  0.000  0.000  0.099
  3  0.000  0.074  0.000  0.025  0.000  0.000  0.000  0.000  0.000  0.099
  4  0.000  0.074  0.000  0.025  0.000  0.000  0.000  0.000  0.000  0.099
  5  0.000  0.074  0.000  0.025  0.000  0.000  0.000  0.000  0.000  0.099
  6  0.000  0.074  0.000  0.025  0.000  0.000  0.000  0.000  0.000  0.099
  7  0.000  0.074  0.000  0.025  0.000  0.000  0.000  0.000  0.000  0.099
  8  0.000  0.074  0.000  0.025  0.000  0.000  0.000  0.000  0.000  0.099
tot  0.000  0.592  0.000  0.197  0.000  0.000  0.000  0.000  0.000  0.790
 
band  12 # energy    1.09842796 # occ.  2.00000000
 
ion      s     py     pz     px    dxy    dyz    dz2    dxz    dx2    tot
  1  0.000  0.026  0.000  0.078  0.000  0.000  0.000  0.000  0.000  0.104
  2  0.000  0.026  0.000  0.078  0.000  0.000  0.000  0.000  0.000  0.104
  3  0.000  0.026  0.000  0.078  0.000  0.000  0.000  0.000  0.000  0.104
  4  0.000  0.026  0.000  0.078  0.000  0.000  0.000  0.000  0.000  0.104
  5  0.000  0.026  0.000  0.078  0.000  0.000  0.000  0.000  0.000  0.104
  6  0.000  0.026  0.000  0.078  0.000  0.000  0.000  0.000  0.000  0.104
  7  0.000  0.026  0.000  0.078  0.000  0.000  0.000  0.000  0.000  0.104
  8  0.000  0.026  0.000  0.078  0.000  0.000  0.000  0.000  0.000  0.104
tot  0.000  0.207  0.000  0.622  0.000  0.000  0.000  0.000  0.000  0.829
 
band  13 # energy    1.09918111 # occ.  2.00000000
 
ion      s     py     pz     px    dxy    dyz    dz2    dxz    dx2    tot
  1  0.000  0.078  0.000  0.026  0.000  0.000  0.000  0.000  0.000  0.104
  2  0.000  0.078  0.000  0.026  0.000  0.000  0.000  0.000  0.000  0.104
  3  0.000  0.078  0.000  0.026  0.000  0.000  0.000  0.000  0.000  0.104
  4  0.000  0.078  0.000  0.026  0.000  0.000  0.000  0.000  0.000  0.104
  5  0.000  0.078  0.000  0.026  0.000  0.000  0.000  0.000  0.000  0.104
  6  0.000  0.078  0.000  0.026  0.000  0.000  0.000  0.000  0.000  0.104
  7  0.000  0.078  0.000  0.026  0.000  0.000  0.000  0.000  0.000  0.104
  8  0.000  0.078  0.000  0.026  0.000  0.000  0.000  0.000  0.000  0.104
tot  0.000  0.622  0.000  0.207  0.000  0.000  0.000  0.000  0.000  0.829
 
band  14 # energy    1.90309668 # occ.  2.00000000
 
ion      s     py     pz     px    dxy    dyz    dz2    dxz    dx2    tot
  1  0.000  0.000  0.000  0.000  0.000  0.000  0.000  0.000  0.000  0.000
  2  0.000  0.000  0.130  0.000  0.000  0.000  0.000  0.000  0.000  0.130
  3  0.000  0.000  0.138  0.000  0.000  0.000  0.000  0.000  0.000  0.138
  4  0.000  0.000  0.000  0.000  0.000  0.000  0.000  0.000  0.000  0.000
  5  0.000  0.000  0.130  0.000  0.000  0.000  0.000  0.000  0.000  0.130
  6  0.000  0.000  0.000  0.000  0.000  0.000  0.000  0.000  0.000  0.000
  7  0.000  0.000  0.000  0.000  0.000  0.000  0.000  0.000  0.000  0.000
  8  0.000  0.000  0.138  0.000  0.000  0.000  0.000  0.000  0.000  0.138
tot  0.000  0.000  0.535  0.000  0.000  0.000  0.000  0.000  0.000  0.535
 
band  15 # energy    1.90309669 # occ.  2.00000000
 
ion      s     py     pz     px    dxy    dyz    dz2    dxz    dx2    tot
  1  0.000  0.000  0.134  0.000  0.000  0.000  0.000  0.000  0.000  0.134
  2  0.000  0.000  0.000  0.000  0.000  0.000  0.000  0.000  0.000  0.000
  3  0.000  0.000  0.000  0.000  0.000  0.000  0.000  0.000  0.000  0.000
  4  0.000  0.000  0.134  0.000  0.000  0.000  0.000  0.000  0.000  0.134
  5  0.000  0.000  0.000  0.000  0.000  0.000  0.000  0.000  0.000  0.000
  6  0.000  0.000  0.134  0.000  0.000  0.000  0.000  0.000  0.000  0.134
  7  0.000  0.000  0.134  0.000  0.000  0.000  0.000  0.000  0.000  0.134
  8  0.000  0.000  0.000  0.000  0.000  0.000  0.000  0.000  0.000  0.000
tot  0.000  0.000  0.535  0.000  0.000  0.000  0.000  0.000  0.000  0.535
 
band  16 # energy    1.90312722 # occ.  2.00000000
 
ion      s     py     pz     px    dxy    dyz    dz2    dxz    dx2    tot
  1  0.000  0.000  0.067  0.000  0.000  0.000  0.000  0.000  0.000  0.067
  2  0.000  0.000  0.071  0.000  0.000  0.000  0.000  0.000  0.000  0.071
  3  0.000  0.000  0.063  0.000  0.000  0.000  0.000  0.000  0.000  0.063
  4  0.000  0.000  0.067  0.000  0.000  0.000  0.000  0.000  0.000  0.067
  5  0.000  0.000  0.071  0.000  0.000  0.000  0.000  0.000  0.000  0.071
  6  0.000  0.000  0.067  0.000  0.000  0.000  0.000  0.000  0.000  0.067
  7  0.000  0.000  0.067  0.000  0.000  0.000  0.000  0.000  0.000  0.067
  8  0.000  0.000  0.063  0.000  0.000  0.000  0.000  0.000  0.000  0.063
tot  0.000  0.000  0.535  0.000  0.000  0.000  0.000  0.000  0.000  0.535
 
band  17 # energy    6.10409262 # occ.  0.00000000
 
ion      s     py     pz     px    dxy    dyz    dz2    dxz    dx2    tot
  1  0.000  0.000  0.061  0.000  0.000  0.000  0.000  0.000  0.000  0.061
  2  0.000  0.000  0.061  0.000  0.000  0.000  0.000  0.000  0.000  0.061
  3  0.000  0.000  0.061  0.000  0.000  0.000  0.000  0.000  0.000  0.061
  4  0.000  0.000  0.061  0.000  0.000  0.000  0.000  0.000  0.000  0.061
  5  0.000  0.000  0.061  0.000  0.000  0.000  0.000  0.000  0.000  0.061
  6  0.000  0.000  0.061  0.000  0.000  0.000  0.000  0.000  0.000  0.061
  7  0.000  0.000  0.061  0.000  0.000  0.000  0.000  0.000  0.000  0.061
  8  0.000  0.000  0.061  0.000  0.000  0.000  0.000  0.000  0.000  0.061
tot  0.000  0.000  0.486  0.000  0.000  0.000  0.000  0.000  0.000  0.486
 
band  18 # energy    6.10444500 # occ.  0.00000000
 
ion      s     py     pz     px    dxy    dyz    dz2    dxz    dx2    tot
  1  0.000  0.000  0.105  0.000  0.000  0.000  0.000  0.000  0.000  0.105
  2  0.000  0.000  0.016  0.000  0.000  0.000  0.000  0.000  0.000  0.016
  3  0.000  0.000  0.016  0.000  0.000  0.000  0.000  0.000  0.000  0.016
  4  0.000  0.000  0.105  0.000  0.000  0.000  0.000  0.000  0.000  0.105
  5  0.000  0.000  0.016  0.000  0.000  0.000  0.000  0.000  0.000  0.016
  6  0.000  0.000  0.105  0.000  0.000  0.000  0.000  0.000  0.000  0.105
  7  0.000  0.000  0.105  0.000  0.000  0.000  0.000  0.000  0.000  0.105
  8  0.000  0.000  0.016  0.000  0.000  0.000  0.000  0.000  0.000  0.016
tot  0.000  0.000  0.486  0.000  0.000  0.000  0.000  0.000  0.000  0.486
 
band  19 # energy    6.10444500 # occ.  0.00000000
 
ion      s     py     pz     px    dxy    dyz    dz2    dxz    dx2    tot
  1  0.000  0.000  0.016  0.000  0.000  0.000  0.000  0.000  0.000  0.016
  2  0.000  0.000  0.105  0.000  0.000  0.000  0.000  0.000  0.000  0.105
  3  0.000  0.000  0.105  0.000  0.000  0.000  0.000  0.000  0.000  0.105
  4  0.000  0.000  0.016  0.000  0.000  0.000  0.000  0.000  0.000  0.016
  5  0.000  0.000  0.105  0.000  0.000  0.000  0.000  0.000  0.000  0.105
  6  0.000  0.000  0.016  0.000  0.000  0.000  0.000  0.000  0.000  0.016
  7  0.000  0.000  0.016  0.000  0.000  0.000  0.000  0.000  0.000  0.016
  8  0.000  0.000  0.105  0.000  0.000  0.000  0.000  0.000  0.000  0.105
tot  0.000  0.000  0.486  0.000  0.000  0.000  0.000  0.000  0.000  0.486
 
band  20 # energy    6.98169277 # occ.  0.00000000
 
ion      s     py     pz     px    dxy    dyz    dz2    dxz    dx2    tot
  1  0.008  0.000  0.000  0.000  0.000  0.000  0.000  0.000  0.000  0.008
  2  0.008  0.000  0.000  0.000  0.000  0.000  0.000  0.000  0.000  0.008
  3  0.008  0.000  0.000  0.000  0.000  0.000  0.000  0.000  0.000  0.008
  4  0.008  0.000  0.000  0.000  0.000  0.000  0.000  0.000  0.000  0.008
  5  0.008  0.000  0.000  0.000  0.000  0.000  0.000  0.000  0.000  0.008
  6  0.008  0.000  0.000  0.000  0.000  0.000  0.000  0.000  0.000  0.008
  7  0.008  0.000  0.000  0.000  0.000  0.000  0.000  0.000  0.000  0.008
  8  0.008  0.000  0.000  0.000  0.000  0.000  0.000  0.000  0.000  0.008
tot  0.062  0.000  0.000  0.000  0.000  0.000  0.000  0.000  0.000  0.062
 
band  21 # energy   11.50893038 # occ.  0.00000000
 
ion      s     py     pz     px    dxy    dyz    dz2    dxz    dx2    tot
  1  0.027  0.011  0.000  0.000  0.000  0.000  0.000  0.000  0.000  0.039
  2  0.065  0.007  0.000  0.000  0.000  0.000  0.000  0.000  0.000  0.072
  3  0.064  0.007  0.000  0.000  0.000  0.000  0.000  0.000  0.000  0.072
  4  0.027  0.011  0.000  0.000  0.000  0.000  0.000  0.000  0.000  0.038
  5  0.065  0.007  0.000  0.000  0.000  0.000  0.000  0.000  0.000  0.072
  6  0.027  0.011  0.000  0.000  0.000  0.000  0.000  0.000  0.000  0.038
  7  0.027  0.011  0.000  0.000  0.000  0.000  0.000  0.000  0.000  0.038
  8  0.064  0.007  0.000  0.000  0.000  0.000  0.000  0.000  0.000  0.072
tot  0.365  0.073  0.000  0.003  0.000  0.000  0.000  0.000  0.000  0.442
 
band  22 # energy   11.50928939 # occ.  0.00000000
 
ion      s     py     pz     px    dxy    dyz    dz2    dxz    dx2    tot
  1  0.038  0.000  0.000  0.010  0.000  0.000  0.000  0.000  0.000  0.049
  2  0.044  0.006  0.000  0.003  0.000  0.000  0.000  0.000  0.000  0.054
  3  0.011  0.003  0.000  0.010  0.000  0.000  0.000  0.000  0.000  0.024
  4  0.089  0.002  0.000  0.004  0.000  0.000  0.000  0.000  0.000  0.094
  5  0.044  0.006  0.000  0.004  0.000  0.000  0.000  0.000  0.000  0.054
  6  0.038  0.000  0.000  0.010  0.000  0.000  0.000  0.000  0.000  0.048
  7  0.089  0.001  0.000  0.003  0.000  0.000  0.000  0.000  0.000  0.094
  8  0.011  0.003  0.000  0.010  0.000  0.000  0.000  0.000  0.000  0.025
tot  0.365  0.022  0.000  0.054  0.000  0.000  0.000  0.000  0.000  0.442
 
band  23 # energy   11.50962837 # occ.  0.00000000
 
ion      s     py     pz     px    dxy    dyz    dz2    dxz    dx2    tot
  1  0.072  0.003  0.000  0.004  0.000  0.000  0.000  0.000  0.000  0.079
  2  0.028  0.001  0.000  0.010  0.000  0.000  0.000  0.000  0.000  0.039
  3  0.061  0.004  0.000  0.004  0.000  0.000  0.000  0.000  0.000  0.069
  4  0.021  0.002  0.000  0.011  0.000  0.000  0.000  0.000  0.000  0.034
  5  0.028  0.001  0.000  0.011  0.000  0.000  0.000  0.000  0.000  0.039
  6  0.072  0.003  0.000  0.004  0.000  0.000  0.000  0.000  0.000  0.079
  7  0.021  0.002  0.000  0.010  0.000  0.000  0.000  0.000  0.000  0.034
  8  0.061  0.004  0.000  0.004  0.000  0.000  0.000  0.000  0.000  0.069
tot  0.365  0.019  0.000  0.057  0.000  0.000  0.000  0.000  0.000  0.442
 
band  24 # energy   12.50369445 # occ.  0.00000000
 
ion      s     py     pz     px    dxy    dyz    dz2    dxz    dx2    tot
  1  0.000  0.056  0.000  0.009  0.000  0.000  0.000  0.000  0.000  0.065
  2  0.000  0.057  0.000  0.009  0.000  0.000  0.000  0.000  0.000  0.065
  3  0.000  0.056  0.000  0.008  0.000  0.000  0.000  0.000  0.000  0.065
  4  0.000  0.057  0.000  0.009  0.000  0.000  0.000  0.000  0.000  0.065
  5  0.000  0.057  0.000  0.009  0.000  0.000  0.000  0.000  0.000  0.065
  6  0.000  0.056  0.000  0.009  0.000  0.000  0.000  0.000  0.000  0.065
  7  0.000  0.057  0.000  0.009  0.000  0.000  0.000  0.000  0.000  0.065
  8  0.000  0.056  0.000  0.008  0.000  0.000  0.000  0.000  0.000  0.065
tot  0.000  0.453  0.000  0.068  0.000  0.000  0.000  0.000  0.000  0.521
 

 k-point    2 :    0.00000000 0.05555556 0.00000000     weight = 0.02500000

band   1 # energy  -15.62803093 # occ.  2.00000000
 
ion      s     py     pz     px    dxy    dyz    dz2    dxz    dx2    tot
  1  0.080  0.000  0.000  0.000  0.000  0.000  0.000  0.000  0.000  0.080
  2  0.080  0.000  0.000  0.000  0.000  0.000  0.000  0.000  0.000  0.080
  3  0.080  0.000  0.000  0.000  0.000  0.000  0.000  0.000  0.000  0.080
  4  0.080  0.000  0.000  0.000  0.000  0.000  0.000  0.000  0.000  0.080
  5  0.080  0.000  0.000  0.000  0.000  0.000  0.000  0.000  0.000  0.080
  6  0.080  0.000  0.000  0.000  0.000  0.000  0.000  0.000  0.000  0.080
  7  0.080  0.000  0.000  0.000  0.000  0.000  0.000  0.000  0.000  0.080
  8  0.080  0.000  0.000  0.000  0.000  0.000  0.000  0.000  0.000  0.080
tot  0.641  0.001  0.000  0.000  0.000  0.000  0.000  0.000  0.000  0.642
 
band   2 # energy  -10.57503754 # occ.  2.00000000
 
ion      s     py     pz     px    dxy    dyz    dz2    dxz    dx2    tot
  1  0.069  0.020  0.000  0.000  0.000  0.000  0.000  0.000  0.000  0.089
  2  0.069  0.020  0.000  0.000  0.000  0.000  0.000  0.000  0.000  0.089
  3  0.069  0.020  0.000  0.000  0.000  0.000  0.000  0.000  0.000  0.089
  4  0.069  0.020  0.000  0.000  0.000  0.000  0.000  0.000  0.000  0.089
  5  0.069  0.020  0.000  0.000  0.000  0.000  0.000  0.000  0.000  0.089
  6  0.069  0.020  0.000  0.000  0.000  0.000  0.000  0.000  0.000  0.089
  7  0.069  0.020  0.000  0.000  0.000  0.000  0.000  0.000  0.000  0.089
  8  0.069  0.020  0.000  0.000  0.000  0.000  0.000  0.000  0.000  0.089
tot  0.554  0.157  0.000  0.000  0.000  0.000  0.000  0.000  0.000  0.711
 
band   3 # energy  -10.36391297 # occ.  2.00000000
 
ion      s     py     pz     px    dxy    dyz    dz2    dxz    dx2    tot
  1  0.073  0.004  0.000  0.014  0.000  0.000  0.000  0.000  0.000  0.091
  2  0.072  0.004  0.000  0.014  0.000  0.000  0.000  0.000  0.000  0.090
  3  0.073  0.004  0.000  0.014  0.000  0.000  0.000  0.000  0.000  0.091
  4  0.072  0.004  0.000  0.014  0.000  0.000  0.000  0.000  0.000  0.090
  5  0.072  0.004  0.000  0.014  0.000  0.000  0.000  0.000  0.000  0.090
  6  0.073  0.004  0.000  0.014  0.000  0.000  0.000  0.000  0.000  0.091
  7  0.072  0.004  0.000  0.014  0.000  0.000  0.000  0.000  0.000  0.090
  8  0.073  0.004  0.000  0.014  0.000  0.000  0.000  0.000  0.000  0.091
tot  0.580  0.031  0.000  0.111  0.000  0.000  0.000  0.000  0.000  0.721
 
band   4 # energy  -10.36380127 # occ.  2.00000000
 
ion      s     py     pz     px    dxy    dyz    dz2    dxz    dx2    tot
  1  0.072  0.004  0.000  0.014  0.000  0.000  0.000  0.000  0.000  0.090
  2  0.073  0.004  0.000  0.014  0.000  0.000  0.000  0.000  0.000  0.091
  3  0.072  0.004  0.000  0.014  0.000  0.000  0.000  0.000  0.000  0.090
  4  0.073  0.004  0.000  0.014  0.000  0.000  0.000  0.000  0.000  0.091
  5  0.073  0.004  0.000  0.014  0.000  0.000  0.000  0.000  0.000  0.091
  6  0.072  0.004  0.000  0.014  0.000  0.000  0.000  0.000  0.000  0.090
  7  0.073  0.004  0.000  0.014  0.000  0.000  0.000  0.000  0.000  0.091
  8  0.072  0.004  0.000  0.014  0.000  0.000  0.000  0.000  0.000  0.090
tot  0.580  0.031  0.000  0.111  0.000  0.000  0.000  0.000  0.000  0.721
 
band   5 # energy   -9.18773946 # occ.  2.00000000
 
ion      s     py     pz     px    dxy    dyz    dz2    dxz    dx2    tot
  1  0.036  0.013  0.000  0.035  0.000  0.000  0.000  0.000  0.000  0.084
  2  0.037  0.013  0.000  0.035  0.000  0.000  0.000  0.000  0.000  0.084
  3  0.036  0.013  0.000  0.035  0.000  0.000  0.000  0.000  0.000  0.084
  4  0.037  0.013  0.000  0.035  0.000  0.000  0.000  0.000  0.000  0.084
  5  0.037  0.013  0.000  0.035  0.000  0.000  0.000  0.000  0.000  0.084
  6  0.037  0.013  0.000  0.035  0.000  0.000  0.000  0.000  0.000  0.084
  7  0.037  0.013  0.000  0.035  0.000  0.000  0.000  0.000  0.000  0.084
  8  0.037  0.013  0.000  0.035  0.000  0.000  0.000  0.000  0.000  0.084
tot  0.293  0.100  0.000  0.281  0.000  0.000  0.000  0.000  0.000  0.674
 
band   6 # energy   -9.18748629 # occ.  2.00000000
 
ion      s     py     pz     px    dxy    dyz    dz2    dxz    dx2    tot
  1  0.037  0.013  0.000  0.035  0.000  0.000  0.000  0.000  0.000  0.084
  2  0.036  0.013  0.000  0.035  0.000  0.000  0.000  0.000  0.000  0.084
  3  0.037  0.013  0.000  0.035  0.000  0.000  0.000  0.000  0.000  0.084
  4  0.036  0.013  0.000  0.035  0.000  0.000  0.000  0.000  0.000  0.084
  5  0.037  0.013  0.000  0.035  0.000  0.000  0.000  0.000  0.000  0.084
  6  0.037  0.013  0.000  0.035  0.000  0.000  0.000  0.000  0.000  0.084
  7  0.037  0.013  0.000  0.035  0.000  0.000  0.000  0.000  0.000  0.084
  8  0.037  0.013  0.000  0.035  0.000  0.000  0.000  0.000  0.000  0.084
tot  0.293  0.100  0.000  0.281  0.000  0.000  0.000  0.000  0.000  0.674
 
band   7 # energy   -8.97942768 # occ.  2.00000000
 
ion      s     py     pz     px    dxy    dyz    dz2    dxz    dx2    tot
  1  0.040  0.046  0.000  0.000  0.000  0.000  0.000  0.000  0.000  0.085
  2  0.040  0.046  0.000  0.000  0.000  0.000  0.000  0.000  0.000  0.085
  3  0.040  0.046  0.000  0.000  0.000  0.000  0.000  0.000  0.000  0.085
  4  0.040  0.046  0.000  0.000  0.000  0.000  0.000  0.000  0.000  0.085
  5  0.040  0.046  0.000  0.000  0.000  0.000  0.000  0.000  0.000  0.085
  6  0.040  0.046  0.000  0.000  0.000  0.000  0.000  0.000  0.000  0.085
  7  0.040  0.046  0.000  0.000  0.000  0.000  0.000  0.000  0.000  0.085
  8  0.040  0.046  0.000  0.000  0.000  0.000  0.000  0.000  0.000  0.085
tot  0.318  0.366  0.000  0.000  0.000  0.000  0.000  0.000  0.000  0.683
 
band   8 # energy   -3.26934049 # occ.  2.00000000
 
ion      s     py     pz     px    dxy    dyz    dz2    dxz    dx2    tot
  1  0.000  0.000  0.058  0.000  0.000  0.000  0.000  0.000  0.000  0.058
  2  0.000  0.000  0.058  0.000  0.000  0.000  0.000  0.000  0.000  0.058
  3  0.000  0.000  0.058  0.000  0.000  0.000  0.000  0.000  0.000  0.058
  4  0.000  0.000  0.058  0.000  0.000  0.000  0.000  0.000  0.000  0.058
  5  0.000  0.000  0.058  0.000  0.000  0.000  0.000  0.000  0.000  0.058
  6  0.000  0.000  0.058  0.000  0.000  0.000  0.000  0.000  0.000  0.058
  7  0.000  0.000  0.058  0.000  0.000  0.000  0.000  0.000  0.000  0.058
  8  0.000  0.000  0.058  0.000  0.000  0.000  0.000  0.000  0.000  0.058
tot  0.000  0.000  0.468  0.000  0.000  0.000  0.000  0.000  0.000  0.468
 
band   9 # energy   -2.40729996 # occ.  2.00000000
 
ion      s     py     pz     px    dxy    dyz    dz2    dxz    dx2    tot
  1  0.000  0.074  0.000  0.025  0.000  0.000  0.000  0.000  0.000  0.099
  2  0.000  0.073  0.000  0.025  0.000  0.000  0.000  0.000  0.000  0.098
  3  0.000  0.074  0.000  0.025  0.000  0.000  0.000  0.000  0.000  0.099
  4  0.000  0.073  0.000  0.025  0.000  0.000  0.000  0.000  0.000  0.098
  5  0.000  0.073  0.000  0.025  0.000  0.000  0.000  0.000  0.000  0.098
  6  0.000  0.074  0.000  0.025  0.000  0.000  0.000  0.000  0.000  0.099
  7  0.000  0.073  0.000  0.025  0.000  0.000  0.000  0.000  0.000  0.098
  8  0.000  0.074  0.000  0.025  0.000  0.000  0.000  0.000  0.000  0.099
tot  0.004  0.587  0.000  0.197  0.000  0.000  0.000  0.000  0.000  0.788
 
band  10 # energy   -2.40680379 # occ.  2.00000000
 
ion      s     py     pz     px    dxy    dyz    dz2    dxz    dx2    tot
  1  0.000  0.073  0.000  0.025  0.000  0.000  0.000  0.000  0.000  0.098
  2  0.000  0.074  0.000  0.025  0.000  0.000  0.000  0.000  0.000  0.099
  3  0.000  0.073  0.000  0.025  0.000  0.000  0.000  0.000  0.000  0.098
  4  0.000  0.074  0.000  0.025  0.000  0.000  0.000  0.000  0.000  0.099
  5  0.000  0.074  0.000  0.025  0.000  0.000  0.000  0.000  0.000  0.099
  6  0.000  0.073  0.000  0.025  0.000  0.000  0.000  0.000  0.000  0.098
  7  0.000  0.074  0.000  0.025  0.000  0.000  0.000  0.000  0.000  0.099
  8  0.000  0.073  0.000  0.025  0.000  0.000  0.000  0.000  0.000  0.098
tot  0.004  0.587  0.000  0.197  0.000  0.000  0.000  0.000  0.000  0.788
 
band  11 # energy   -2.33050491 # occ.  2.00000000
 
ion      s     py     pz     px    dxy    dyz    dz2    dxz    dx2    tot
  1  0.000  0.000  0.000  0.099  0.000  0.000  0.000  0.000  0.000  0.099
  2  0.000  0.000  0.000  0.099  0.000  0.000  0.000  0.000  0.000  0.099
  3  0.000  0.000  0.000  0.099  0.000  0.000  0.000  0.000  0.000  0.099
  4  0.000  0.000  0.000  0.099  0.000  0.000  0.000  0.000  0.000  0.099
  5  0.000  0.000  0.000  0.099  0.000  0.000  0.000  0.000  0.000  0.099
  6  0.000  0.000  0.000  0.099  0.000  0.000  0.000  0.000  0.000  0.099
  7  0.000  0.000  0.000  0.099  0.000  0.000  0.000  0.000  0.000  0.099
  8  0.000  0.000  0.000  0.099  0.000  0.000  0.000  0.000  0.000  0.099
tot  0.000  0.000  0.000  0.790  0.000  0.000  0.000  0.000  0.000  0.790
 
band  12 # energy    1.02189543 # occ.  2.00000000
 
ion      s     py     pz     px    dxy    dyz    dz2    dxz    dx2    tot
  1  0.001  0.103  0.000  0.000  0.000  0.000  0.000  0.000  0.000  0.103
  2  0.001  0.103  0.000  0.000  0.000  0.000  0.000  0.000  0.000  0.103
  3  0.001  0.103  0.000  0.000  0.000  0.000  0.000  0.000  0.000  0.103
  4  0.001  0.103  0.000  0.000  0.000  0.000  0.000  0.000  0.000  0.103
  5  0.001  0.103  0.000  0.000  0.000  0.000  0.000  0.000  0.000  0.103
  6  0.001  0.103  0.000  0.000  0.000  0.000  0.000  0.000  0.000  0.103
  7  0.001  0.103  0.000  0.000  0.000  0.000  0.000  0.000  0.000  0.103
  8  0.001  0.103  0.000  0.000  0.000  0.000  0.000  0.000  0.000  0.103
tot  0.004  0.823  0.000  0.000  0.000  0.000  0.000  0.000  0.000  0.827
 
band  13 # energy    1.05748204 # occ.  2.00000000
 
ion      s     py     pz     px    dxy    dyz    dz2    dxz    dx2    tot
  1  0.000  0.000  0.000  0.103  0.000  0.000  0.000  0.000  0.000  0.103
  2  0.000  0.000  0.000  0.103  0.000  0.000  0.000  0.000  0.000  0.103
  3  0.000  0.000  0.000  0.103  0.000  0.000  0.000  0.000  0.000  0.103
  4  0.000  0.000  0.000  0.103  0.000  0.000  0.000  0.000  0.000  0.103
  5  0.000  0.000  0.000  0.103  0.000  0.000  0.000  0.000  0.000  0.103
  6  0.000  0.000  0.000  0.103  0.000  0.000  0.000  0.000  0.000  0.103
  7  0.000  0.000  0.000  0.103  0.000  0.000  0.000  0.000  0.000  0.103
  8  0.000  0.000  0.000  0.103  0.000  0.000  0.000  0.000  0.000  0.103
tot  0.000  0.000  0.000  0.828  0.000  0.000  0.000  0.000  0.000  0.828
 
band  14 # energy    1.79144542 # occ.  2.00000000
 
ion      s     py     pz     px    dxy    dyz    dz2    dxz    dx2    tot
  1  0.000  0.000  0.066  0.000  0.000  0.000  0.000  0.000  0.000  0.066
  2  0.000  0.000  0.066  0.000  0.000  0.000  0.000  0.000  0.000  0.066