<?xml version="1.0" encoding="ISO-8859-1"?>
<modeling>
 <generator>
  <i name="program" type="string">vasp </i>
  <i name="version" type="string">5.2.11  </i>
  <i name="subversion" type="string">25Nov10 complex  parallel </i>
  <i name="platform" type="string">LinuxIFC </i>
  <i name="date" type="string">2018 12 15 </i>
  <i name="time" type="string">14:01:18 </i>
 </generator>
 <incar>
  <i type="string" name="SYSTEM"> NAME</i>
  <i type="int" name="ISTART">     0</i>
  <i type="string" name="PREC">medium</i>
  <i type="int" name="ICHARG">    11</i>
  <i type="int" name="NELM">   100</i>
  <i type="int" name="NELMDL">    -5</i>
  <i type="int" name="NELMIN">     5</i>
  <i type="int" name="IBRION">    -1</i>
  <i name="EDIFF">      0.00010000</i>
  <i type="int" name="NSW">     0</i>
  <i type="int" name="ISIF">     2</i>
  <i name="ENCUT">    500.00000000</i>
  <i type="int" name="ISMEAR">     0</i>
  <i name="SIGMA">      0.10000000</i>
  <i type="logical" name="LORBIT"> F  </i>
  <i type="int" name="NELM">   100</i>
  <i type="logical" name="LPEAD"> F  </i>
  <i type="logical" name="LCALCPOL"> F  </i>
  <i type="logical" name="LCALCEPS"> F  </i>
  <v name="EFIELD_PEAD">      0.00000000      0.00000000      0.00000000</v>
  <i type="logical" name="LEFG"> F  </i>
  <i type="logical" name="LRHFATM"> F  </i>
  <i type="string" name="METAGGA">--</i>
  <i type="int" name="LMAXTAU">     0</i>
 </incar>
 <kpoints>
  <generation param="listgenerated">
   <i name="divisions" type="int">      10 </i>
   <v>       0.00000000       0.00000000       0.00000000 </v>
   <v>       0.00000000       0.50000000       0.00000000 </v>
   <v>       0.00000000       0.50000000       0.50000000 </v>
   <v>       0.00000000       0.00000000       0.50000000 </v>
   <v>       0.00000000       0.00000000       0.00000000 </v>
  </generation>
  <varray name="kpointlist" >
   <v>       0.00000000       0.00000000       0.00000000 </v>
   <v>       0.00000000       0.05555556       0.00000000 </v>
   <v>       0.00000000       0.11111111       0.00000000 </v>
   <v>       0.00000000       0.16666667       0.00000000 </v>
   <v>       0.00000000       0.22222222       0.00000000 </v>
   <v>       0.00000000       0.27777778       0.00000000 </v>
   <v>       0.00000000       0.33333333       0.00000000 </v>
   <v>       0.00000000       0.38888889       0.00000000 </v>
   <v>       0.00000000       0.44444444       0.00000000 </v>
   <v>       0.00000000       0.50000000       0.00000000 </v>
   <v>       0.00000000       0.50000000       0.00000000 </v>
   <v>       0.00000000       0.50000000       0.05555556 </v>
   <v>       0.00000000       0.50000000       0.11111111 </v>
   <v>       0.00000000       0.50000000       0.16666667 </v>
   <v>       0.00000000       0.50000000       0.22222222 </v>
   <v>       0.00000000       0.50000000       0.27777778 </v>
   <v>       0.00000000       0.50000000       0.33333333 </v>
   <v>       0.00000000       0.50000000       0.38888889 </v>
   <v>       0.00000000       0.50000000       0.44444444 </v>
   <v>       0.00000000       0.50000000       0.50000000 </v>
   <v>       0.00000000       0.50000000       0.50000000 </v>
   <v>       0.00000000       0.44444444       0.50000000 </v>
   <v>       0.00000000       0.38888889       0.50000000 </v>
   <v>       0.00000000       0.33333333       0.50000000 </v>
   <v>       0.00000000       0.27777778       0.50000000 </v>
   <v>       0.00000000       0.22222222       0.50000000 </v>
   <v>       0.00000000       0.16666667       0.50000000 </v>
   <v>       0.00000000       0.11111111       0.50000000 </v>
   <v>       0.00000000       0.05555556       0.50000000 </v>
   <v>       0.00000000       0.00000000       0.50000000 </v>
   <v>       0.00000000       0.00000000       0.50000000 </v>
   <v>       0.00000000       0.00000000       0.44444444 </v>
   <v>       0.00000000       0.00000000       0.38888889 </v>
   <v>       0.00000000       0.00000000       0.33333333 </v>
   <v>       0.00000000       0.00000000       0.27777778 </v>
   <v>       0.00000000       0.00000000       0.22222222 </v>
   <v>       0.00000000       0.00000000       0.16666667 </v>
   <v>       0.00000000       0.00000000       0.11111111 </v>
   <v>       0.00000000       0.00000000       0.05555556 </v>
   <v>       0.00000000       0.00000000       0.00000000 </v>
  </varray>
  <varray name="weights" >
   <v>       0.02500000 </v>
   <v>       0.02500000 </v>
   <v>       0.02500000 </v>
   <v>       0.02500000 </v>
   <v>       0.02500000 </v>
   <v>       0.02500000 </v>
   <v>       0.02500000 </v>
   <v>       0.02500000 </v>
   <v>       0.02500000 </v>
   <v>       0.02500000 </v>
   <v>       0.02500000 </v>
   <v>       0.02500000 </v>
   <v>       0.02500000 </v>
   <v>       0.02500000 </v>
   <v>       0.02500000 </v>
   <v>       0.02500000 </v>
   <v>       0.02500000 </v>
   <v>       0.02500000 </v>
   <v>       0.02500000 </v>
   <v>       0.02500000 </v>
   <v>       0.02500000 </v>
   <v>       0.02500000 </v>
   <v>       0.02500000 </v>
   <v>       0.02500000 </v>
   <v>       0.02500000 </v>
   <v>       0.02500000 </v>
   <v>       0.02500000 </v>
   <v>       0.02500000 </v>
   <v>       0.02500000 </v>
   <v>       0.02500000 </v>
   <v>       0.02500000 </v>
   <v>       0.02500000 </v>
   <v>       0.02500000 </v>
   <v>       0.02500000 </v>
   <v>       0.02500000 </v>
   <v>       0.02500000 </v>
   <v>       0.02500000 </v>
   <v>       0.02500000 </v>
   <v>       0.02500000 </v>
   <v>       0.02500000 </v>
  </varray>
 </kpoints>
 <parameters>
  <separator name="general" >
   <i type="string" name="SYSTEM">NAME</i>
   <i type="logical" name="LCOMPAT"> F  </i>
  </separator>
  <separator name="electronic" >
   <i type="string" name="PREC">medium</i>
   <i name="ENMAX">    500.00000000</i>
   <i name="ENAUG">    644.87300000</i>
   <i name="EDIFF">      0.00010000</i>
   <i type="int" name="IALGO">    38</i>
   <i type="int" name="IWAVPR">    10</i>
   <i type="int" name="NBANDS">    24</i>
   <i name="NELECT">     32.00000000</i>
   <i type="int" name="TURBO">     0</i>
   <i type="int" name="IRESTART">     0</i>
   <i type="int" name="NREBOOT">     0</i>
   <i type="int" name="NMIN">     0</i>
   <i name="EREF">      0.00000000</i>
   <separator name="electronic smearing" >
    <i type="int" name="ISMEAR">     0</i>
    <i name="SIGMA">      0.10000000</i>
    <i name="KSPACING">      0.50000000</i>
    <i type="logical" name="KGAMMA"> T  </i>
   </separator>
   <separator name="electronic projectors" >
    <i type="logical" name="LREAL"> F  </i>
    <v name="ROPT">      0.00000000</v>
    <i type="int" name="LMAXPAW">  -100</i>
    <i type="int" name="LMAXMIX">     2</i>
   </separator>
   <separator name="electronic startup" >
    <i type="int" name="ISTART">     0</i>
    <i type="int" name="ICHARG">    11</i>
    <i type="int" name="INIWAV">     1</i>
   </separator>
   <separator name="electronic spin" >
    <i type="int" name="ISPIN">     1</i>
    <i type="logical" name="LNONCOLLINEAR"> F  </i>
    <v name="MAGMOM">      1.00000000      1.00000000      1.00000000      1.00000000      1.00000000      1.00000000      1.00000000      1.00000000</v>
    <i name="NUPDOWN">     -1.00000000</i>
    <i type="logical" name="LSORBIT"> F  </i>
    <v name="SAXIS">      0.00000000      0.00000000      1.00000000</v>
    <i type="logical" name="LSPIRAL"> F  </i>
    <v name="QSPIRAL">      0.00000000      0.00000000      0.00000000</v>
    <i type="logical" name="LZEROZ"> F  </i>
   </separator>
   <separator name="electronic exchange-correlation" >
    <i type="logical" name="LASPH"> F  </i>
    <i type="logical" name="LMETAGGA"> F  </i>
   </separator>
   <separator name="electronic convergence" >
    <i type="int" name="NELM">   100</i>
    <i type="int" name="NELMDL">    -5</i>
    <i type="int" name="NELMIN">     5</i>
    <i name="ENINI">    500.00000000</i>
    <separator name="electronic convergence detail" >
     <i type="logical" name="LDIAG"> T  </i>
     <i type="logical" name="LSUBROT"> T  </i>
     <i name="WEIMIN">      0.00000000</i>
     <i name="EBREAK">      0.00000119</i>
     <i name="DEPER">      0.30000000</i>
     <i type="int" name="NRMM">     4</i>
     <i name="TIME">      0.40000000</i>
    </separator>
   </separator>
   <separator name="electronic mixer" >
    <i name="AMIX">      0.40000000</i>
    <i name="BMIX">      1.00000000</i>
    <i name="AMIN">      0.10000000</i>
    <i name="AMIX_MAG">      1.60000000</i>
    <i name="BMIX_MAG">      1.00000000</i>
    <separator name="electronic mixer details" >
     <i type="int" name="IMIX">     4</i>
     <i type="int" name="MAXMIX">   -45</i>
     <i name="WC">    100.00000000</i>
     <i type="int" name="INIMIX">     1</i>
     <i type="int" name="MIXPRE">     1</i>
     <i type="int" name="MREMOVE">     5</i>
    </separator>
   </separator>
   <separator name="electronic dipolcorrection" >
    <i type="logical" name="LDIPOL"> F  </i>
    <i type="logical" name="LMONO"> F  </i>
    <i type="int" name="IDIPOL">     0</i>
    <i name="EPSILON">      1.00000000</i>
    <v name="DIPOL">   -100.00000000   -100.00000000   -100.00000000</v>
    <i name="EFIELD">      0.00000000</i>
   </separator>
  </separator>
  <separator name="grids" >
   <i type="int" name="NGX">    28</i>
   <i type="int" name="NGY">    28</i>
   <i type="int" name="NGZ">    24</i>
   <i type="int" name="NGXF">    40</i>
   <i type="int" name="NGYF">    40</i>
   <i type="int" name="NGZF">    32</i>
   <i type="logical" name="ADDGRID"> F  </i>
  </separator>
  <separator name="ionic" >
   <i type="int" name="NSW">     0</i>
   <i type="int" name="IBRION">    -1</i>
   <i type="int" name="ISIF">     2</i>
   <i name="PSTRESS">      0.00000000</i>
   <i name="EDIFFG">      0.00100000</i>
   <i type="int" name="NFREE">     0</i>
   <i name="POTIM">      0.50000000</i>
   <i name="SMASS">     -3.00000000</i>
  </separator>
  <separator name="ionic md" >
   <i name="TEBEG">      0.00010000</i>
   <i name="TEEND">      0.00010000</i>
   <i type="int" name="NBLOCK">     1</i>
   <i type="int" name="KBLOCK">     1</i>
   <i type="int" name="NPACO">   256</i>
   <i name="APACO">     16.00000000</i>
  </separator>
  <separator name="symmetry" >
   <i type="int" name="ISYM">     2</i>
   <i name="SYMPREC">      0.00001000</i>
  </separator>
  <separator name="dos" >
   <i type="logical" name="LORBIT"> F  </i>
   <v name="RWIGS">     -1.00000000</v>
   <i type="int" name="NEDOS">   301</i>
   <i name="EMIN">     10.00000000</i>
   <i name="EMAX">    -10.00000000</i>
   <i name="EFERMI">      0.00000000</i>
  </separator>
  <separator name="writing" >
   <i type="int" name="NWRITE">     2</i>
   <i type="logical" name="LWAVE"> T  </i>
   <i type="logical" name="LCHARG"> T  </i>
   <i type="logical" name="LPARD"> F  </i>
   <i type="logical" name="LVTOT"> F  </i>
   <i type="logical" name="LVHAR"> F  </i>
   <i type="logical" name="LELF"> F  </i>
   <i type="logical" name="LOPTICS"> F  </i>
   <v name="STM">      0.00000000      0.00000000      0.00000000      0.00000000      0.00000000</v>
  </separator>
  <separator name="performance" >
   <i type="int" name="NPAR">    12</i>
   <i type="int" name="NSIM">     4</i>
   <i type="int" name="NBLK">    -1</i>
   <i type="logical" name="LPLANE"> T  </i>
   <i type="logical" name="LSCALAPACK"> F  </i>
   <i type="logical" name="LSCAAWARE"> F  </i>
   <i type="logical" name="LSCALU"> F  </i>
   <i type="logical" name="LASYNC"> F  </i>
   <i type="logical" name="LORBITALREAL"> F  </i>
  </separator>
  <separator name="miscellaneous" >
   <i type="int" name="IDIOT">     3</i>
   <i type="logical" name="LMUSIC"> F  </i>
   <v name="POMASS">     12.01100000</v>
   <v name="DARWINR">      0.00000000</v>
   <v name="DARWINV">      1.00000000</v>
   <i type="logical" name="LCORR"> T  </i>
  </separator>
  <i type="logical" name="GGA_COMPAT"> T  </i>
  <i type="logical" name="LBERRY"> F  </i>
  <i type="int" name="ICORELEVEL">     0</i>
  <i type="logical" name="LDAU"> F  </i>
  <i type="int" name="I_CONSTRAINED_M">     0</i>
  <separator name="electronic exchange-correlation" >
   <i type="string" name="GGA">--</i>
   <i type="int" name="VOSKOWN">     0</i>
   <i type="logical" name="LHFCALC"> F  </i>
   <i type="string" name="PRECFOCK"></i>
   <i type="logical" name="LHFONE"> F  </i>
   <i type="logical" name="LRHFCALC"> F  </i>
   <i type="logical" name="LTHOMAS"> F  </i>
   <i type="logical" name="LMODELHF"> F  </i>
   <i name="ENCUT4O">     -1.00000000</i>
   <i type="int" name="EXXOEP">     0</i>
   <i type="int" name="FOURORBIT">     0</i>
   <i name="AEXX">      0.00000000</i>
   <i name="HFALPHA">      0.00000000</i>
   <i name="ALDAX">      1.00000000</i>
   <i name="AGGAX">      1.00000000</i>
   <i name="ALDAC">      1.00000000</i>
   <i name="AGGAC">      1.00000000</i>
   <i type="int" name="NKREDX">     1</i>
   <i type="int" name="NKREDY">     1</i>
   <i type="int" name="NKREDZ">     1</i>
   <i type="logical" name="SHIFTRED"> F  </i>
   <i type="logical" name="ODDONLY"> F  </i>
   <i type="logical" name="EVENONLY"> F  </i>
   <i type="int" name="LMAXFOCK">     0</i>
   <i type="int" name="NMAXFOCKAE">     0</i>
   <i type="logical" name="LFOCKAEDFT"> F  </i>
   <i name="HFSCREEN">      0.00000000</i>
   <i name="HFSCREENC">      0.00000000</i>
  </separator>
  <separator name="model GW" >
   <i type="int" name="MODEL_GW">     0</i>
   <i name="MODEL_EPS0">      6.00289531</i>
   <i name="MODEL_ALPHA">      1.00000000</i>
  </separator>
  <separator name="linear response parameters" >
   <i type="logical" name="LEPSILON"> F  </i>
   <i type="logical" name="LRPA"> F  </i>
   <i type="logical" name="LNABLA"> F  </i>
   <i type="logical" name="LVEL"> F  </i>
   <i type="int" name="KINTER">     0</i>
   <i name="CSHIFT">      0.10000000</i>
   <i name="OMEGAMAX">     -1.00000000</i>
  </separator>
  <separator name="orbital magnetization" >
   <i type="logical" name="ORBITALMAG"> F  </i>
   <i type="logical" name="LMAGBLOCH"> F  </i>
   <i type="logical" name="LCHIMAG"> F  </i>
   <i type="logical" name="LGAUGE"> T  </i>
   <i type="int" name="MAGATOM">     0</i>
   <v name="MAGDIPOL">      0.00000000      0.00000000      0.00000000</v>
   <v name="AVECCONST">      0.00000000      0.00000000      0.00000000</v>
  </separator>
  <separator name="response functions" >
   <i type="logical" name="LRPA"> T  </i>
   <i type="logical" name="LTCTE"> F  </i>
   <i type="logical" name="LTETE"> F  </i>
   <i type="logical" name="L2ORDER"> F  </i>
   <i type="logical" name="LUSEW"> F  </i>
   <i name="ENCUTGW">     -2.00000000</i>
   <i name="ENCUTGWSOFT">     -2.00000000</i>
   <i name="ENCUTLF">     -1.00000000</i>
   <i type="int" name="LMAXMP2">    -1</i>
   <i name="SCISSOR">      0.00000000</i>
   <i type="int" name="NOMEGA">     0</i>
   <i type="int" name="NOMEGAR">     0</i>
   <i type="int" name="NBANDSGW">    -1</i>
   <i type="int" name="NBANDSO">    -1</i>
   <i type="int" name="NBANDSV">    -1</i>
   <i type="int" name="NELM">   100</i>
   <i type="int" name="DIM">     3</i>
   <i type="int" name="ANTIRES">     0</i>
   <i name="OMEGAMAX">    -30.00000000</i>
   <i name="OMEGATL">   -200.00000000</i>
   <i type="int" name="OMEGAGRID">     0</i>
   <i name="CSHIFT">     -0.10000000</i>
   <i type="logical" name="SELFENERGY"> F  </i>
   <i type="logical" name="LSPECTRAL"> F  </i>
   <i type="logical" name="ODDONLYGW"> F  </i>
   <i type="logical" name="EVENONLYGW"> F  </i>
   <i type="int" name="NKREDLFX">     1</i>
   <i type="int" name="NKREDLFY">     1</i>
   <i type="int" name="NKREDLFZ">     1</i>
   <i type="int" name="MAXMEM">  1800</i>
   <i type="int" name="TELESCOPE">     0</i>
  </separator>
 </parameters>
 <atominfo>
  <atoms>       8 </atoms>
  <types>       1 </types>
  <array name="atoms" >
   <dimension dim="1">ion</dimension>
   <field type="string">element</field>
   <field type="int">atomtype</field>
   <set>
    <rc><c>C </c><c>   1</c></rc>
    <rc><c>C </c><c>   1</c></rc>
    <rc><c>C </c><c>   1</c></rc>
    <rc><c>C </c><c>   1</c></rc>
    <rc><c>C </c><c>   1</c></rc>
    <rc><c>C </c><c>   1</c></rc>
    <rc><c>C </c><c>   1</c></rc>
    <rc><c>C </c><c>   1</c></rc>
   </set>
  </array>
  <array name="atomtypes" >
   <dimension dim="1">type</dimension>
   <field type="int">atomspertype</field>
   <field type="string">element</field>
   <field>mass</field>
   <field>valence</field>
   <field type="string">pseudopotential</field>
   <set>
    <rc><c>   8</c><c>C </c><c>     12.01100000</c><c>      4.00000000</c><c> PAW_PBE C 08Apr2002                    </c></rc>
   </set>
  </array>
 </atominfo>
 <structure name="initialpos" >
  <crystal>
   <varray name="basis" >
    <v>       4.90416594      -0.00003262       0.00000000 </v>
    <v>      -2.45211122       4.24711598       0.00000000 </v>
    <v>       0.00000000       0.00000000       3.84274793 </v>
   </varray>
   <i name="volume">     80.03860417 </i>
   <varray name="rec_basis" >
    <v>       0.20390905       0.11772876       0.00000000 </v>
    <v>       0.00000157       0.23545480       0.00000000 </v>
    <v>       0.00000000       0.00000000       0.26023044 </v>
   </varray>
  </crystal>
  <varray name="positions" >
   <v>       0.99999710       0.00000290       0.07317000 </v>
   <v>       0.33333290       0.16666710       0.07317000 </v>
   <v>       0.49999710       0.00000290       0.07317000 </v>
   <v>       0.83333287       0.16666710       0.07317000 </v>
   <v>       0.99999710       0.50000290       0.07317000 </v>
   <v>       0.33333290       0.66666713       0.07317000 </v>
   <v>       0.49999710       0.50000290       0.07317000 </v>
   <v>       0.83333287       0.66666713       0.07317000 </v>
  </varray>
 </structure>
 <calculation>
  <scstep>
   <time name="dav">    1.28    1.28</time>
   <time name="total">    1.29    1.31</time>
   <energy>
    <i name="alphaZ">     65.15269163 </i>
    <i name="ewald">   -738.74955668 </i>
    <i name="hartreedc">   -518.57552971 </i>
    <i name="XCdc">    116.31825625 </i>
    <i name="pawpsdc">    572.18391481 </i>
    <i name="pawaedc">   -582.63500242 </i>
    <i name="eentropy">     -0.00713234 </i>
    <i name="bandstr">      3.92670092 </i>
    <i name="atom">   1177.18737338 </i>
    <i name="e_fr_energy">     94.80171585 </i>
    <i name="e_wo_entrp">     94.80884819 </i>
    <i name="e_0_energy">     94.80528202 </i>
   </energy>
  </scstep>
  <scstep>
   <time name="dav">    1.17    1.17</time>
   <time name="total">    1.17    1.18</time>
   <energy>
    <i name="e_fr_energy">    -65.26771801 </i>
    <i name="e_wo_entrp">    -65.26771801 </i>
    <i name="e_0_energy">    -65.26771801 </i>
   </energy>
  </scstep>
  <scstep>
   <time name="dav">    1.18    1.18</time>
   <time name="total">    1.18    1.20</time>
   <energy>
    <i name="e_fr_energy">    -71.10512518 </i>
    <i name="e_wo_entrp">    -71.10512518 </i>
    <i name="e_0_energy">    -71.10512518 </i>
   </energy>
  </scstep>
  <scstep>
   <time name="dav">    1.18    1.18</time>
   <time name="total">    1.18    1.20</time>
   <energy>
    <i name="e_fr_energy">    -71.15167528 </i>
    <i name="e_wo_entrp">    -71.15167528 </i>
    <i name="e_0_energy">    -71.15167528 </i>
   </energy>
  </scstep>
  <scstep>
   <time name="dav">    1.18    1.18</time>
   <time name="total">    1.18    1.19</time>
   <energy>
    <i name="e_fr_energy">    -71.15271894 </i>
    <i name="e_wo_entrp">    -71.15271894 </i>
    <i name="e_0_energy">    -71.15271894 </i>
   </energy>
  </scstep>
  <scstep>
   <time name="dav">    1.20    1.20</time>
   <time name="total">    1.20    1.23</time>
   <energy>
    <i name="alphaZ">     65.15269163 </i>
    <i name="ewald">   -738.74955668 </i>
    <i name="hartreedc">   -518.57552971 </i>
    <i name="XCdc">    116.31825625 </i>
    <i name="pawpsdc">    572.18391481 </i>
    <i name="pawaedc">   -582.63500242 </i>
    <i name="eentropy">     -0.00000000 </i>
    <i name="bandstr">   -162.03490209 </i>
    <i name="atom">   1177.18737338 </i>
    <i name="e_fr_energy">    -71.15275481 </i>
    <i name="e_wo_entrp">    -71.15275481 </i>
    <i name="e_0_energy">    -71.15275481 </i>
   </energy>
  </scstep>
  <v type="logical" name="LVDW"> F  </v>
  <structure>
   <crystal>
    <varray name="basis" >
     <v>       4.90416594      -0.00003262       0.00000000 </v>
     <v>      -2.45211122       4.24711598       0.00000000 </v>
     <v>       0.00000000       0.00000000       3.84274793 </v>
    </varray>
    <i name="volume">     80.03860417 </i>
    <varray name="rec_basis" >
     <v>       0.20390905       0.11772876       0.00000000 </v>
     <v>       0.00000157       0.23545480       0.00000000 </v>
     <v>       0.00000000       0.00000000       0.26023044 </v>
    </varray>
   </crystal>
   <varray name="positions" >
    <v>       0.99999710       0.00000290       0.07317000 </v>
    <v>       0.33333290       0.16666710       0.07317000 </v>
    <v>       0.49999710       0.00000290       0.07317000 </v>
    <v>       0.83333287       0.16666710       0.07317000 </v>
    <v>       0.99999710       0.50000290       0.07317000 </v>
    <v>       0.33333290       0.66666713       0.07317000 </v>
    <v>       0.49999710       0.50000290       0.07317000 </v>
    <v>       0.83333287       0.66666713       0.07317000 </v>
   </varray>
  </structure>
  <varray name="forces" >
   <v>       0.29096164      -0.16798678      -0.00000000 </v>
   <v>      -0.29096164       0.16798678      -0.00000000 </v>
   <v>       0.29096164      -0.16798678       0.00000000 </v>
   <v>      -0.29096164       0.16798678       0.00000000 </v>
   <v>       0.29096164      -0.16798678      -0.00000000 </v>
   <v>      -0.29096164       0.16798678      -0.00000000 </v>
   <v>       0.29096164      -0.16798678       0.00000000 </v>
   <v>      -0.29096164       0.16798678       0.00000000 </v>
  </varray>
  <varray name="stress" >
   <v>     170.57181255     -82.55423410      -0.00000000 </v>
   <v>     -82.55423410      75.24639400       0.00000000 </v>
   <v>       0.00000000       0.00000000    -108.21758067 </v>
  </varray>
  <energy>
   <i name="e_fr_energy">    -71.15275481 </i>
   <i name="e_wo_entrp">    -71.15275481 </i>
   <i name="e_0_energy">     -0.00000000 </i>
  </energy>
  <time name="totalsc">    8.24    8.35</time>
  <eigenvalues>
   <array>
    <dimension dim="1">band</dimension>
    <dimension dim="2">kpoint</dimension>
    <dimension dim="3">spin</dimension>
    <field>eigene</field>
    <field>occ</field>
    <set>
     <set comment="spin 1">
      <set comment="kpoint 1">
       <r>  -15.6466    1.0000 </r>
       <r>  -10.2902    1.0000 </r>
       <r>  -10.2901    1.0000 </r>
       <r>  -10.2901    1.0000 </r>
       <r>   -9.2921    1.0000 </r>
       <r>   -9.2919    1.0000 </r>
       <r>   -9.2919    1.0000 </r>
       <r>   -3.2911    1.0000 </r>
       <r>   -2.3489    1.0000 </r>
       <r>   -2.3489    1.0000 </r>
       <r>   -2.3484    1.0000 </r>
       <r>    1.0984    1.0000 </r>
       <r>    1.0992    1.0000 </r>
       <r>    1.9031    1.0000 </r>
       <r>    1.9031    1.0000 </r>
       <r>    1.9031    1.0000 </r>
       <r>    6.1041    0.0000 </r>
       <r>    6.1044    0.0000 </r>
       <r>    6.1044    0.0000 </r>
       <r>    6.9817    0.0000 </r>
       <r>   11.5089    0.0000 </r>
       <r>   11.5093    0.0000 </r>
       <r>   11.5096    0.0000 </r>
       <r>   12.5037    0.0000 </r>
      </set>
      <set comment="kpoint 2">
       <r>  -15.6280    1.0000 </r>
       <r>  -10.5750    1.0000 </r>
       <r>  -10.3639    1.0000 </r>
       <r>  -10.3638    1.0000 </r>
       <r>   -9.1877    1.0000 </r>
       <r>   -9.1875    1.0000 </r>
       <r>   -8.9794    1.0000 </r>
       <r>   -3.2693    1.0000 </r>
       <r>   -2.4073    1.0000 </r>
       <r>   -2.4068    1.0000 </r>
       <r>   -2.3305    1.0000 </r>
       <r>    1.0219    1.0000 </r>
       <r>    1.0575    1.0000 </r>
       <r>    1.7914    1.0000 </r>
       <r>    1.8911    1.0000 </r>
       <r>    1.8912    1.0000 </r>
       <r>    6.1337    0.0000 </r>
       <r>    6.1341    0.0000 </r>
       <r>    6.2443    0.0000 </r>
       <r>    7.0053    0.0000 </r>
       <r>   11.5174    0.0000 </r>
       <r>   11.5946    0.0000 </r>
       <r>   11.5955    0.0000 </r>
       <r>   12.5426    0.0000 </r>
      </set>
      <set comment="kpoint 3">
       <r>  -15.5723    1.0000 </r>
       <r>  -11.0756    1.0000 </r>
       <r>  -10.5264    1.0000 </r>
       <r>  -10.5263    1.0000 </r>
       <r>   -8.9335    1.0000 </r>
       <r>   -8.9333    1.0000 </r>
       <r>   -8.3965    1.0000 </r>
       <r>   -3.2041    1.0000 </r>
       <r>   -2.5772    1.0000 </r>
       <r>   -2.5767    1.0000 </r>
       <r>   -2.2753    1.0000 </r>
       <r>    0.7962    1.0000 </r>
       <r>    0.9381    1.0000 </r>
       <r>    1.4948    1.0000 </r>
       <r>    1.8574    1.0000 </r>
       <r>    1.8575    1.0000 </r>
       <r>    6.2192    0.0000 </r>
       <r>    6.2195    0.0000 </r>
       <r>    6.6254    0.0000 </r>
       <r>    7.0760    0.0000 </r>
       <r>   11.5409    0.0000 </r>
       <r>   11.8453    0.0000 </r>
       <r>   11.8459    0.0000 </r>
       <r>   12.6223    0.0000 </r>
      </set>
      <set comment="kpoint 4">
       <r>  -15.4796    1.0000 </r>
       <r>  -11.5941    1.0000 </r>
       <r>  -10.7070    1.0000 </r>
       <r>  -10.7069    1.0000 </r>
       <r>   -8.6015    1.0000 </r>
       <r>   -8.6013    1.0000 </r>
       <r>   -7.7416    1.0000 </r>
       <r>   -3.0957    1.0000 </r>
       <r>   -2.8447    1.0000 </r>
       <r>   -2.8442    1.0000 </r>
       <r>   -2.1839    1.0000 </r>
       <r>    0.4369    1.0000 </r>
       <r>    0.7515    1.0000 </r>
       <r>    1.0871    1.0000 </r>
       <r>    1.8076    1.0000 </r>
       <r>    1.8077    1.0000 </r>
       <r>    6.3501    0.0000 </r>
       <r>    6.3504    0.0000 </r>
       <r>    7.1720    0.0000 </r>
       <r>    7.1940    0.0000 </r>
       <r>   11.5670    0.0000 </r>
       <r>   12.2443    0.0000 </r>
       <r>   12.2488    0.0000 </r>
       <r>   12.3106    0.0000 </r>
      </set>
      <set comment="kpoint 5">
       <r>  -15.3500    1.0000 </r>
       <r>  -12.0958    1.0000 </r>
       <r>  -10.8755    1.0000 </r>
       <r>  -10.8754    1.0000 </r>
       <r>   -8.2249    1.0000 </r>
       <r>   -8.2246    1.0000 </r>
       <r>   -7.0510    1.0000 </r>
       <r>   -3.1897    1.0000 </r>
       <r>   -3.1893    1.0000 </r>
       <r>   -2.9443    1.0000 </r>
       <r>   -2.0572    1.0000 </r>
       <r>   -0.0352    1.0000 </r>
       <r>    0.5125    1.0000 </r>
       <r>    0.6282    1.0000 </r>
       <r>    1.7493    1.0000 </r>
       <r>    1.7493    1.0000 </r>
       <r>    6.5114    0.0000 </r>
       <r>    6.5117    0.0000 </r>
       <r>    7.3594    0.0000 </r>
       <r>    7.8217    0.0000 </r>
       <r>   11.4517    0.0000 </r>
       <r>   11.8248    0.0000 </r>
       <r>   12.5900    0.0000 </r>
       <r>   12.7549    0.0000 </r>
      </set>
      <set comment="kpoint 6">
       <r>  -15.1837    1.0000 </r>
       <r>  -12.5714    1.0000 </r>
       <r>  -11.0200    1.0000 </r>
       <r>  -11.0199    1.0000 </r>
       <r>   -7.8202    1.0000 </r>
       <r>   -7.8199    1.0000 </r>
       <r>   -6.3361    1.0000 </r>
       <r>   -3.5894    1.0000 </r>
       <r>   -3.5890    1.0000 </r>
       <r>   -2.7505    1.0000 </r>
       <r>   -1.8963    1.0000 </r>
       <r>   -0.5977    1.0000 </r>
       <r>    0.1547    1.0000 </r>
       <r>    0.2373    1.0000 </r>
       <r>    1.6901    1.0000 </r>
       <r>    1.6901    1.0000 </r>
       <r>    6.6847    0.0000 </r>
       <r>    6.6850    0.0000 </r>
       <r>    7.5720    0.0000 </r>
       <r>    8.5343    0.0000 </r>
       <r>   10.9279    0.0000 </r>
       <r>   11.8060    0.0000 </r>
       <r>   12.6077    0.0000 </r>
       <r>   12.9875    0.0000 </r>
      </set>
      <set comment="kpoint 7">
       <r>  -14.9807    1.0000 </r>
       <r>  -13.0167    1.0000 </r>
       <r>  -11.1352    1.0000 </r>
       <r>  -11.1352    1.0000 </r>
       <r>   -7.4021    1.0000 </r>
       <r>   -7.4018    1.0000 </r>
       <r>   -5.6037    1.0000 </r>
       <r>   -4.0180    1.0000 </r>
       <r>   -4.0176    1.0000 </r>
       <r>   -2.5150    1.0000 </r>
       <r>   -1.7030    1.0000 </r>
       <r>   -1.2291    1.0000 </r>
       <r>   -0.3121    1.0000 </r>
       <r>   -0.0590    1.0000 </r>
       <r>    1.6370    1.0000 </r>
       <r>    1.6370    1.0000 </r>
       <r>    6.8497    0.0000 </r>
       <r>    6.8499    0.0000 </r>
       <r>    7.8320    0.0000 </r>
       <r>    9.2837    0.0000 </r>
       <r>   10.3615    0.0000 </r>
       <r>   11.8874    0.0000 </r>
       <r>   12.5554    0.0000 </r>
       <r>   12.8511    0.0000 </r>
      </set>
      <set comment="kpoint 8">
       <r>  -14.7415    1.0000 </r>
       <r>  -13.4301    1.0000 </r>
       <r>  -11.2189    1.0000 </r>
       <r>  -11.2188    1.0000 </r>
       <r>   -6.9933    1.0000 </r>
       <r>   -6.9930    1.0000 </r>
       <r>   -4.8598    1.0000 </r>
       <r>   -4.4424    1.0000 </r>
       <r>   -4.4420    1.0000 </r>
       <r>   -2.2387    1.0000 </r>
       <r>   -1.9106    1.0000 </r>
       <r>   -1.4798    1.0000 </r>
       <r>   -0.7598    1.0000 </r>
       <r>   -0.3635    1.0000 </r>
       <r>    1.5953    1.0000 </r>
       <r>    1.5953    1.0000 </r>
       <r>    6.9863    0.0000 </r>
       <r>    6.9864    0.0000 </r>
       <r>    8.1389    0.0000 </r>
       <r>    9.8289    0.0000 </r>
       <r>   10.0514    0.0000 </r>
       <r>   11.9909    0.0000 </r>
       <r>   12.4377    0.0000 </r>
       <r>   12.7403    0.0000 </r>
      </set>
      <set comment="kpoint 9">
       <r>  -14.4664    1.0000 </r>
       <r>  -13.8101    1.0000 </r>
       <r>  -11.2695    1.0000 </r>
       <r>  -11.2694    1.0000 </r>
       <r>   -6.6470    1.0000 </r>
       <r>   -6.6468    1.0000 </r>
       <r>   -4.8011    1.0000 </r>
       <r>   -4.8009    1.0000 </r>
       <r>   -4.1106    1.0000 </r>
       <r>   -2.6263    1.0000 </r>
       <r>   -1.9230    1.0000 </r>
       <r>   -1.2295    1.0000 </r>
       <r>   -1.1806    1.0000 </r>
       <r>   -0.6655    1.0000 </r>
       <r>    1.5688    1.0000 </r>
       <r>    1.5688    1.0000 </r>
       <r>    7.0769    0.0000 </r>
       <r>    7.0769    0.0000 </r>
       <r>    8.4926    0.0000 </r>
       <r>    9.3385    0.0000 </r>
       <r>   10.8225    0.0000 </r>
       <r>   12.1085    0.0000 </r>
       <r>   12.3264    0.0000 </r>
       <r>   12.3579    0.0000 </r>
      </set>
      <set comment="kpoint 10">
       <r>  -14.1557    1.0000 </r>
       <r>  -14.1557    1.0000 </r>
       <r>  -11.2864    1.0000 </r>
       <r>  -11.2864    1.0000 </r>
       <r>   -6.4932    1.0000 </r>
       <r>   -6.4932    1.0000 </r>
       <r>   -4.9594    1.0000 </r>
       <r>   -4.9594    1.0000 </r>
       <r>   -3.3632    1.0000 </r>
       <r>   -3.3632    1.0000 </r>
       <r>   -1.5694    1.0000 </r>
       <r>   -1.5694    1.0000 </r>
       <r>   -0.9564    1.0000 </r>
       <r>   -0.9564    1.0000 </r>
       <r>    1.5597    1.0000 </r>
       <r>    1.5597    1.0000 </r>
       <r>    7.1086    0.0000 </r>
       <r>    7.1086    0.0000 </r>
       <r>    8.8927    0.0000 </r>
       <r>    8.8927    0.0000 </r>
       <r>   11.5837    0.0000 </r>
       <r>   11.5840    0.0000 </r>
       <r>   12.2216    0.0000 </r>
       <r>   12.2262    0.0000 </r>
      </set>
      <set comment="kpoint 11">
       <r>  -14.1557    1.0000 </r>
       <r>  -14.1557    1.0000 </r>
       <r>  -11.2864    1.0000 </r>
       <r>  -11.2864    1.0000 </r>
       <r>   -6.4932    1.0000 </r>
       <r>   -6.4932    1.0000 </r>
       <r>   -4.9594    1.0000 </r>
       <r>   -4.9594    1.0000 </r>
       <r>   -3.3632    1.0000 </r>
       <r>   -3.3632    1.0000 </r>
       <r>   -1.5694    1.0000 </r>
       <r>   -1.5694    1.0000 </r>
       <r>   -0.9564    1.0000 </r>
       <r>   -0.9564    1.0000 </r>
       <r>    1.5597    1.0000 </r>
       <r>    1.5597    1.0000 </r>
       <r>    7.1086    0.0000 </r>
       <r>    7.1086    0.0000 </r>
       <r>    8.8927    0.0000 </r>
       <r>    8.8927    0.0000 </r>
       <r>   11.5838    0.0000 </r>
       <r>   11.5845    0.0000 </r>
       <r>   12.2204    0.0000 </r>
       <r>   12.2286    0.0000 </r>
      </set>
      <set comment="kpoint 12">
       <r>  -14.1530    1.0000 </r>
       <r>  -14.1530    1.0000 </r>
       <r>  -11.2842    1.0000 </r>
       <r>  -11.2842    1.0000 </r>
       <r>   -6.4919    1.0000 </r>
       <r>   -6.4919    1.0000 </r>
       <r>   -4.9584    1.0000 </r>
       <r>   -4.9584    1.0000 </r>
       <r>   -3.3623    1.0000 </r>
       <r>   -3.3623    1.0000 </r>
       <r>   -1.6009    1.0000 </r>
       <r>   -1.6009    1.0000 </r>
       <r>   -0.9560    1.0000 </r>
       <r>   -0.9560    1.0000 </r>
       <r>    1.5346    1.0000 </r>
       <r>    1.5346    1.0000 </r>
       <r>    7.0915    0.0000 </r>
       <r>    7.0915    0.0000 </r>
       <r>    8.9840    0.0000 </r>
       <r>    8.9840    0.0000 </r>
       <r>   11.5725    0.0000 </r>
       <r>   11.5729    0.0000 </r>
       <r>   12.2228    0.0000 </r>
       <r>   12.2347    0.0000 </r>
      </set>
      <set comment="kpoint 13">
       <r>  -14.1452    1.0000 </r>
       <r>  -14.1452    1.0000 </r>
       <r>  -11.2780    1.0000 </r>
       <r>  -11.2780    1.0000 </r>
       <r>   -6.4881    1.0000 </r>
       <r>   -6.4881    1.0000 </r>
       <r>   -4.9554    1.0000 </r>
       <r>   -4.9554    1.0000 </r>
       <r>   -3.3596    1.0000 </r>
       <r>   -3.3596    1.0000 </r>
       <r>   -1.6899    1.0000 </r>
       <r>   -1.6899    1.0000 </r>
       <r>   -0.9550    1.0000 </r>
       <r>   -0.9550    1.0000 </r>
       <r>    1.4633    1.0000 </r>
       <r>    1.4633    1.0000 </r>
       <r>    7.0431    0.0000 </r>
       <r>    7.0431    0.0000 </r>
       <r>    9.2504    0.0000 </r>
       <r>    9.2504    0.0000 </r>
       <r>   11.5403    0.0000 </r>
       <r>   11.5404    0.0000 </r>
       <r>   12.2316    0.0000 </r>
       <r>   12.2333    0.0000 </r>
      </set>
      <set comment="kpoint 14">
       <r>  -14.1332    1.0000 </r>
       <r>  -14.1331    1.0000 </r>
       <r>  -11.2683    1.0000 </r>
       <r>  -11.2683    1.0000 </r>
       <r>   -6.4822    1.0000 </r>
       <r>   -6.4822    1.0000 </r>
       <r>   -4.9508    1.0000 </r>
       <r>   -4.9508    1.0000 </r>
       <r>   -3.3556    1.0000 </r>
       <r>   -3.3556    1.0000 </r>
       <r>   -1.8217    1.0000 </r>
       <r>   -1.8217    1.0000 </r>
       <r>   -0.9533    1.0000 </r>
       <r>   -0.9533    1.0000 </r>
       <r>    1.3569    1.0000 </r>
       <r>    1.3569    1.0000 </r>
       <r>    6.9704    0.0000 </r>
       <r>    6.9704    0.0000 </r>
       <r>    9.6704    0.0000 </r>
       <r>    9.6704    0.0000 </r>
       <r>   11.4951    0.0000 </r>
       <r>   11.4951    0.0000 </r>
       <r>   12.2458    0.0000 </r>
       <r>   12.2466    0.0000 </r>
      </set>
      <set comment="kpoint 15">
       <r>  -14.1183    1.0000 </r>
       <r>  -14.1183    1.0000 </r>
       <r>  -11.2564    1.0000 </r>
       <r>  -11.2564    1.0000 </r>
       <r>   -6.4750    1.0000 </r>
       <r>   -6.4750    1.0000 </r>
       <r>   -4.9451    1.0000 </r>
       <r>   -4.9451    1.0000 </r>
       <r>   -3.3507    1.0000 </r>
       <r>   -3.3507    1.0000 </r>
       <r>   -1.9765    1.0000 </r>
       <r>   -1.9765    1.0000 </r>
       <r>   -0.9514    1.0000 </r>
       <r>   -0.9514    1.0000 </r>
       <r>    1.2307    1.0000 </r>
       <r>    1.2307    1.0000 </r>
       <r>    6.8834    0.0000 </r>
       <r>    6.8834    0.0000 </r>
       <r>   10.2059    0.0000 </r>
       <r>   10.2059    0.0000 </r>
       <r>   11.4535    0.0000 </r>
       <r>   11.4535    0.0000 </r>
       <r>   12.2636    0.0000 </r>
       <r>   12.2640    0.0000 </r>
      </set>
      <set comment="kpoint 16">
       <r>  -14.1024    1.0000 </r>
       <r>  -14.1024    1.0000 </r>
       <r>  -11.2436    1.0000 </r>
       <r>  -11.2436    1.0000 </r>
       <r>   -6.4673    1.0000 </r>
       <r>   -6.4673    1.0000 </r>
       <r>   -4.9391    1.0000 </r>
       <r>   -4.9391    1.0000 </r>
       <r>   -3.3455    1.0000 </r>
       <r>   -3.3455    1.0000 </r>
       <r>   -2.1339    1.0000 </r>
       <r>   -2.1339    1.0000 </r>
       <r>   -0.9493    1.0000 </r>
       <r>   -0.9493    1.0000 </r>
       <r>    1.1013    1.0000 </r>
       <r>    1.1013    1.0000 </r>
       <r>    6.7932    0.0000 </r>
       <r>    6.7932    0.0000 </r>
       <r>   10.7709    0.0000 </r>
       <r>   10.7709    0.0000 </r>
       <r>   11.4713    0.0000 </r>
       <r>   11.4714    0.0000 </r>
       <r>   12.2864    0.0000 </r>
       <r>   12.2866    0.0000 </r>
      </set>
      <set comment="kpoint 17">
       <r>  -14.0873    1.0000 </r>
       <r>  -14.0873    1.0000 </r>
       <r>  -11.2316    1.0000 </r>
       <r>  -11.2316    1.0000 </r>
       <r>   -6.4600    1.0000 </r>
       <r>   -6.4600    1.0000 </r>
       <r>   -4.9334    1.0000 </r>
       <r>   -4.9334    1.0000 </r>
       <r>   -3.3405    1.0000 </r>
       <r>   -3.3405    1.0000 </r>
       <r>   -2.2757    1.0000 </r>
       <r>   -2.2757    1.0000 </r>
       <r>   -0.9473    1.0000 </r>
       <r>   -0.9473    1.0000 </r>
       <r>    0.9838    1.0000 </r>
       <r>    0.9838    1.0000 </r>
       <r>    6.7107    0.0000 </r>
       <r>    6.7107    0.0000 </r>
       <r>   11.0831    0.0000 </r>
       <r>   11.0831    0.0000 </r>
       <r>   11.7786    0.0000 </r>
       <r>   11.7786    0.0000 </r>
       <r>   12.3231    0.0000 </r>
       <r>   12.3231    0.0000 </r>
      </set>
      <set comment="kpoint 18">
       <r>  -14.0749    1.0000 </r>
       <r>  -14.0749    1.0000 </r>
       <r>  -11.2217    1.0000 </r>
       <r>  -11.2217    1.0000 </r>
       <r>   -6.4541    1.0000 </r>
       <r>   -6.4541    1.0000 </r>
       <r>   -4.9288    1.0000 </r>
       <r>   -4.9288    1.0000 </r>
       <r>   -3.3364    1.0000 </r>
       <r>   -3.3364    1.0000 </r>
       <r>   -2.3875    1.0000 </r>
       <r>   -2.3875    1.0000 </r>
       <r>   -0.9457    1.0000 </r>
       <r>   -0.9457    1.0000 </r>
       <r>    0.8906    1.0000 </r>
       <r>    0.8906    1.0000 </r>
       <r>    6.6449    0.0000 </r>
       <r>    6.6449    0.0000 </r>
       <r>   11.1174    0.0000 </r>
       <r>   11.1174    0.0000 </r>
       <r>   12.1951    0.0000 </r>
       <r>   12.1951    0.0000 </r>
       <r>   12.5108    0.0000 </r>
       <r>   12.5109    0.0000 </r>
      </set>
      <set comment="kpoint 19">
       <r>  -14.0668    1.0000 </r>
       <r>  -14.0668    1.0000 </r>
       <r>  -11.2152    1.0000 </r>
       <r>  -11.2152    1.0000 </r>
       <r>   -6.4502    1.0000 </r>
       <r>   -6.4502    1.0000 </r>
       <r>   -4.9257    1.0000 </r>
       <r>   -4.9257    1.0000 </r>
       <r>   -3.3338    1.0000 </r>
       <r>   -3.3338    1.0000 </r>
       <r>   -2.4587    1.0000 </r>
       <r>   -2.4587    1.0000 </r>
       <r>   -0.9446    1.0000 </r>
       <r>   -0.9446    1.0000 </r>
       <r>    0.8311    1.0000 </r>
       <r>    0.8311    1.0000 </r>
       <r>    6.6026    0.0000 </r>
       <r>    6.6026    0.0000 </r>
       <r>   11.1069    0.0000 </r>
       <r>   11.1069    0.0000 </r>
       <r>   12.2700    0.0000 </r>
       <r>   12.2701    0.0000 </r>
       <r>   12.9496    0.0000 </r>
       <r>   12.9497    0.0000 </r>
      </set>
      <set comment="kpoint 20">
       <r>  -14.0639    1.0000 </r>
       <r>  -14.0639    1.0000 </r>
       <r>  -11.2129    1.0000 </r>
       <r>  -11.2129    1.0000 </r>
       <r>   -6.4489    1.0000 </r>
       <r>   -6.4489    1.0000 </r>
       <r>   -4.9247    1.0000 </r>
       <r>   -4.9247    1.0000 </r>
       <r>   -3.3328    1.0000 </r>
       <r>   -3.3328    1.0000 </r>
       <r>   -2.4831    1.0000 </r>
       <r>   -2.4831    1.0000 </r>
       <r>   -0.9442    1.0000 </r>
       <r>   -0.9442    1.0000 </r>
       <r>    0.8106    1.0000 </r>
       <r>    0.8106    1.0000 </r>
       <r>    6.5878    0.0000 </r>
       <r>    6.5878    0.0000 </r>
       <r>   11.1012    0.0000 </r>
       <r>   11.1012    0.0000 </r>
       <r>   12.2807    0.0000 </r>
       <r>   12.2808    0.0000 </r>
       <r>   13.1447    0.0000 </r>
       <r>   13.1448    0.0000 </r>
      </set>
      <set comment="kpoint 21">
       <r>  -14.0639    1.0000 </r>
       <r>  -14.0639    1.0000 </r>
       <r>  -11.2129    1.0000 </r>
       <r>  -11.2129    1.0000 </r>
       <r>   -6.4489    1.0000 </r>
       <r>   -6.4489    1.0000 </r>
       <r>   -4.9247    1.0000 </r>
       <r>   -4.9247    1.0000 </r>
       <r>   -3.3328    1.0000 </r>
       <r>   -3.3328    1.0000 </r>
       <r>   -2.4831    1.0000 </r>
       <r>   -2.4831    1.0000 </r>
       <r>   -0.9442    1.0000 </r>
       <r>   -0.9442    1.0000 </r>
       <r>    0.8106    1.0000 </r>
       <r>    0.8106    1.0000 </r>
       <r>    6.5878    0.0000 </r>
       <r>    6.5878    0.0000 </r>
       <r>   11.1012    0.0000 </r>
       <r>   11.1012    0.0000 </r>
       <r>   12.2807    0.0000 </r>
       <r>   12.2808    0.0000 </r>
       <r>   13.1447    0.0000 </r>
       <r>   13.1449    0.0000 </r>
      </set>
      <set comment="kpoint 22">
       <r>  -14.3725    1.0000 </r>
       <r>  -13.7206    1.0000 </r>
       <r>  -11.1961    1.0000 </r>
       <r>  -11.1961    1.0000 </r>
       <r>   -6.6018    1.0000 </r>
       <r>   -6.6016    1.0000 </r>
       <r>   -4.7675    1.0000 </r>
       <r>   -4.7672    1.0000 </r>
       <r>   -4.0766    1.0000 </r>
       <r>   -2.8520    1.0000 </r>
       <r>   -2.5995    1.0000 </r>
       <r>   -2.0762    1.0000 </r>
       <r>   -1.2170    1.0000 </r>
       <r>   -0.6538    1.0000 </r>
       <r>    0.8219    1.0000 </r>
       <r>    0.8219    1.0000 </r>
       <r>    6.5410    0.0000 </r>
       <r>    6.5411    0.0000 </r>
       <r>   10.2986    0.0000 </r>
       <r>   11.8483    0.0000 </r>
       <r>   12.1728    0.0000 </r>
       <r>   12.3837    0.0000 </r>
       <r>   12.8467    0.0000 </r>
       <r>   13.5072    0.0000 </r>
      </set>
      <set comment="kpoint 23">
       <r>  -14.6457    1.0000 </r>
       <r>  -13.3431    1.0000 </r>
       <r>  -11.1457    1.0000 </r>
       <r>  -11.1457    1.0000 </r>
       <r>   -6.9459    1.0000 </r>
       <r>   -6.9457    1.0000 </r>
       <r>   -4.8223    1.0000 </r>
       <r>   -4.4113    1.0000 </r>
       <r>   -4.4109    1.0000 </r>
       <r>   -3.1809    1.0000 </r>
       <r>   -1.8873    1.0000 </r>
       <r>   -1.6343    1.0000 </r>
       <r>   -1.4669    1.0000 </r>
       <r>   -0.3523    1.0000 </r>
       <r>    0.8552    1.0000 </r>
       <r>    0.8552    1.0000 </r>
       <r>    6.4087    0.0000 </r>
       <r>    6.4088    0.0000 </r>
       <r>    9.4783    0.0000 </r>
       <r>   12.0660    0.0000 </r>
       <r>   12.2772    0.0000 </r>
       <r>   12.4747    0.0000 </r>
       <r>   12.8646    0.0000 </r>
       <r>   13.9092    0.0000 </r>
      </set>
      <set comment="kpoint 24">
       <r>  -14.8833    1.0000 </r>
       <r>  -12.9324    1.0000 </r>
       <r>  -11.0625    1.0000 </r>
       <r>  -11.0624    1.0000 </r>
       <r>   -7.3524    1.0000 </r>
       <r>   -7.3521    1.0000 </r>
       <r>   -5.5625    1.0000 </r>
       <r>   -3.9900    1.0000 </r>
       <r>   -3.9896    1.0000 </r>
       <r>   -3.4681    1.0000 </r>
       <r>   -1.6899    1.0000 </r>
       <r>   -1.2091    1.0000 </r>
       <r>   -1.1620    1.0000 </r>
       <r>   -0.0483    1.0000 </r>
       <r>    0.9080    1.0000 </r>
       <r>    0.9080    1.0000 </r>
       <r>    6.2123    0.0000 </r>
       <r>    6.2125    0.0000 </r>
       <r>    8.6580    0.0000 </r>
       <r>   11.9656    0.0000 </r>
       <r>   12.1326    0.0000 </r>
       <r>   12.5457    0.0000 </r>
       <r>   13.4394    0.0000 </r>
       <r>   14.3395    0.0000 </r>
      </set>
      <set comment="kpoint 25">
       <r>  -15.0848    1.0000 </r>
       <r>  -12.4898    1.0000 </r>
       <r>  -10.9477    1.0000 </r>
       <r>  -10.9476    1.0000 </r>
       <r>   -7.7682    1.0000 </r>
       <r>   -7.7679    1.0000 </r>
       <r>   -6.2912    1.0000 </r>
       <r>   -3.7126    1.0000 </r>
       <r>   -3.5647    1.0000 </r>
       <r>   -3.5642    1.0000 </r>
       <r>   -1.8830    1.0000 </r>
       <r>   -0.6662    1.0000 </r>
       <r>   -0.5809    1.0000 </r>
       <r>    0.2475    1.0000 </r>
       <r>    0.9760    1.0000 </r>
       <r>    0.9760    1.0000 </r>
       <r>    5.9799    0.0000 </r>
       <r>    5.9801    0.0000 </r>
       <r>    7.8541    0.0000 </r>
       <r>   11.8752    0.0000 </r>
       <r>   11.9272    0.0000 </r>
       <r>   12.5910    0.0000 </r>
       <r>   13.6211    0.0000 </r>
       <r>   13.6898    0.0000 </r>
      </set>
      <set comment="kpoint 26">
       <r>  -15.2499    1.0000 </r>
       <r>  -12.0171    1.0000 </r>
       <r>  -10.8039    1.0000 </r>
       <r>  -10.8038    1.0000 </r>
       <r>   -8.1707    1.0000 </r>
       <r>   -8.1704    1.0000 </r>
       <r>   -7.0025    1.0000 </r>
       <r>   -3.9137    1.0000 </r>
       <r>   -3.1683    1.0000 </r>
       <r>   -3.1678    1.0000 </r>
       <r>   -2.0437    1.0000 </r>
       <r>   -0.1586    1.0000 </r>
       <r>   -0.0212    1.0000 </r>
       <r>    0.5221    1.0000 </r>
       <r>    1.0528    1.0000 </r>
       <r>    1.0528    1.0000 </r>
       <r>    5.7399    0.0000 </r>
       <r>    5.7402    0.0000 </r>
       <r>    7.0855    0.0000 </r>
       <r>   11.7475    0.0000 </r>
       <r>   11.7978    0.0000 </r>
       <r>   12.6085    0.0000 </r>
       <r>   12.9605    0.0000 </r>
       <r>   12.9614    0.0000 </r>
      </set>
      <set comment="kpoint 27">
       <r>  -15.3786    1.0000 </r>
       <r>  -11.5183    1.0000 </r>
       <r>  -10.6361    1.0000 </r>
       <r>  -10.6360    1.0000 </r>
       <r>   -8.5455    1.0000 </r>
       <r>   -8.5452    1.0000 </r>
       <r>   -7.6896    1.0000 </r>
       <r>   -4.0706    1.0000 </r>
       <r>   -2.8262    1.0000 </r>
       <r>   -2.8258    1.0000 </r>
       <r>   -2.1703    1.0000 </r>
       <r>    0.3401    1.0000 </r>
       <r>    0.4485    1.0000 </r>
       <r>    0.7606    1.0000 </r>
       <r>    1.1299    1.0000 </r>
       <r>    1.1299    1.0000 </r>
       <r>    5.5189    0.0000 </r>
       <r>    5.5193    0.0000 </r>
       <r>    6.3784    0.0000 </r>
       <r>   11.6043    0.0000 </r>
       <r>   11.7357    0.0000 </r>
       <r>   12.4115    0.0000 </r>
       <r>   12.4327    0.0000 </r>
       <r>   12.6650    0.0000 </r>
      </set>
      <set comment="kpoint 28">
       <r>  -15.4706    1.0000 </r>
       <r>  -11.0026    1.0000 </r>
       <r>  -10.4560    1.0000 </r>
       <r>  -10.4559    1.0000 </r>
       <r>   -8.8761    1.0000 </r>
       <r>   -8.8758    1.0000 </r>
       <r>   -8.3413    1.0000 </r>
       <r>   -4.1829    1.0000 </r>
       <r>   -2.5612    1.0000 </r>
       <r>   -2.5607    1.0000 </r>
       <r>   -2.2616    1.0000 </r>
       <r>    0.7921    1.0000 </r>
       <r>    0.8060    1.0000 </r>
       <r>    0.9468    1.0000 </r>
       <r>    1.1969    1.0000 </r>
       <r>    1.1969    1.0000 </r>
       <r>    5.3406    0.0000 </r>
       <r>    5.3409    0.0000 </r>
       <r>    5.7747    0.0000 </r>
       <r>   11.5009    0.0000 </r>
       <r>   11.6901    0.0000 </r>
       <r>   11.9982    0.0000 </r>
       <r>   12.0011    0.0000 </r>
       <r>   12.6392    0.0000 </r>
      </set>
      <set comment="kpoint 29">
       <r>  -15.5258    1.0000 </r>
       <r>  -10.5042    1.0000 </r>
       <r>  -10.2937    1.0000 </r>
       <r>  -10.2936    1.0000 </r>
       <r>   -9.1296    1.0000 </r>
       <r>   -9.1293    1.0000 </r>
       <r>   -8.9217    1.0000 </r>
       <r>   -4.2504    1.0000 </r>
       <r>   -2.3929    1.0000 </r>
       <r>   -2.3924    1.0000 </r>
       <r>   -2.3167    1.0000 </r>
       <r>    1.0305    1.0000 </r>
       <r>    1.0657    1.0000 </r>
       <r>    1.1296    1.0000 </r>
       <r>    1.2429    1.0000 </r>
       <r>    1.2429    1.0000 </r>
       <r>    5.2245    0.0000 </r>
       <r>    5.2248    0.0000 </r>
       <r>    5.3451    0.0000 </r>
       <r>   11.4385    0.0000 </r>
       <r>   11.6629    0.0000 </r>
       <r>   11.7405    0.0000 </r>
       <r>   11.7419    0.0000 </r>
       <r>   12.5781    0.0000 </r>
      </set>
      <set comment="kpoint 30">
       <r>  -15.5443    1.0000 </r>
       <r>  -10.2200    1.0000 </r>
       <r>  -10.2199    1.0000 </r>
       <r>  -10.2199    1.0000 </r>
       <r>   -9.2339    1.0000 </r>
       <r>   -9.2336    1.0000 </r>
       <r>   -9.2336    1.0000 </r>
       <r>   -4.2730    1.0000 </r>
       <r>   -2.3351    1.0000 </r>
       <r>   -2.3351    1.0000 </r>
       <r>   -2.3346    1.0000 </r>
       <r>    1.1065    1.0000 </r>
       <r>    1.1073    1.0000 </r>
       <r>    1.2593    1.0000 </r>
       <r>    1.2593    1.0000 </r>
       <r>    1.2594    1.0000 </r>
       <r>    5.1841    0.0000 </r>
       <r>    5.1845    0.0000 </r>
       <r>    5.1845    0.0000 </r>
       <r>   11.4177    0.0000 </r>
       <r>   11.6528    0.0000 </r>
       <r>   11.6529    0.0000 </r>
       <r>   11.6561    0.0000 </r>
       <r>   12.5350    0.0000 </r>
      </set>
      <set comment="kpoint 31">
       <r>  -15.5443    1.0000 </r>
       <r>  -10.2200    1.0000 </r>
       <r>  -10.2199    1.0000 </r>
       <r>  -10.2199    1.0000 </r>
       <r>   -9.2339    1.0000 </r>
       <r>   -9.2336    1.0000 </r>
       <r>   -9.2336    1.0000 </r>
       <r>   -4.2730    1.0000 </r>
       <r>   -2.3351    1.0000 </r>
       <r>   -2.3351    1.0000 </r>
       <r>   -2.3346    1.0000 </r>
       <r>    1.1065    1.0000 </r>
       <r>    1.1073    1.0000 </r>
       <r>    1.2593    1.0000 </r>
       <r>    1.2593    1.0000 </r>
       <r>    1.2594    1.0000 </r>
       <r>    5.1841    0.0000 </r>
       <r>    5.1845    0.0000 </r>
       <r>    5.1845    0.0000 </r>
       <r>   11.4176    0.0000 </r>
       <r>   11.6528    0.0000 </r>
       <r>   11.6529    0.0000 </r>
       <r>   11.6536    0.0000 </r>
       <r>   12.5350    0.0000 </r>
      </set>
      <set comment="kpoint 32">
       <r>  -15.5474    1.0000 </r>
       <r>  -10.2221    1.0000 </r>
       <r>  -10.2220    1.0000 </r>
       <r>  -10.2220    1.0000 </r>
       <r>   -9.2357    1.0000 </r>
       <r>   -9.2354    1.0000 </r>
       <r>   -9.2354    1.0000 </r>
       <r>   -4.2469    1.0000 </r>
       <r>   -2.3355    1.0000 </r>
       <r>   -2.3355    1.0000 </r>
       <r>   -2.3350    1.0000 </r>
       <r>    1.1064    1.0000 </r>
       <r>    1.1071    1.0000 </r>
       <r>    1.2773    1.0000 </r>
       <r>    1.2773    1.0000 </r>
       <r>    1.2773    1.0000 </r>
       <r>    5.2081    0.0000 </r>
       <r>    5.2085    0.0000 </r>
       <r>    5.2085    0.0000 </r>
       <r>   11.1827    0.0000 </r>
       <r>   11.6484    0.0000 </r>
       <r>   11.6486    0.0000 </r>
       <r>   11.6492    0.0000 </r>
       <r>   12.5344    0.0000 </r>
      </set>
      <set comment="kpoint 33">
       <r>  -15.5565    1.0000 </r>
       <r>  -10.2283    1.0000 </r>
       <r>  -10.2282    1.0000 </r>
       <r>  -10.2282    1.0000 </r>
       <r>   -9.2408    1.0000 </r>
       <r>   -9.2405    1.0000 </r>
       <r>   -9.2405    1.0000 </r>
       <r>   -4.1710    1.0000 </r>
       <r>   -2.3367    1.0000 </r>
       <r>   -2.3367    1.0000 </r>
       <r>   -2.3362    1.0000 </r>
       <r>    1.1056    1.0000 </r>
       <r>    1.1064    1.0000 </r>
       <r>    1.3293    1.0000 </r>
       <r>    1.3293    1.0000 </r>
       <r>    1.3293    1.0000 </r>
       <r>    5.2785    0.0000 </r>
       <r>    5.2789    0.0000 </r>
       <r>    5.2789    0.0000 </r>
       <r>   10.5992    0.0000 </r>
       <r>   11.6357    0.0000 </r>
       <r>   11.6362    0.0000 </r>
       <r>   11.6383    0.0000 </r>
       <r>   12.5312    0.0000 </r>
      </set>
      <set comment="kpoint 34">
       <r>  -15.5703    1.0000 </r>
       <r>  -10.2378    1.0000 </r>
       <r>  -10.2377    1.0000 </r>
       <r>  -10.2377    1.0000 </r>
       <r>   -9.2486    1.0000 </r>
       <r>   -9.2484    1.0000 </r>
       <r>   -9.2484    1.0000 </r>
       <r>   -4.0517    1.0000 </r>
       <r>   -2.3386    1.0000 </r>
       <r>   -2.3386    1.0000 </r>
       <r>   -2.3381    1.0000 </r>
       <r>    1.1045    1.0000 </r>
       <r>    1.1053    1.0000 </r>
       <r>    1.4103    1.0000 </r>
       <r>    1.4103    1.0000 </r>
       <r>    1.4103    1.0000 </r>
       <r>    5.3894    0.0000 </r>
       <r>    5.3898    0.0000 </r>
       <r>    5.3898    0.0000 </r>
       <r>    9.8658    0.0000 </r>
       <r>   11.6164    0.0000 </r>
       <r>   11.6166    0.0000 </r>
       <r>   11.6179    0.0000 </r>
       <r>   12.5271    0.0000 </r>
      </set>
      <set comment="kpoint 35">
       <r>  -15.5871    1.0000 </r>
       <r>  -10.2493    1.0000 </r>
       <r>  -10.2492    1.0000 </r>
       <r>  -10.2492    1.0000 </r>
       <r>   -9.2582    1.0000 </r>
       <r>   -9.2579    1.0000 </r>
       <r>   -9.2579    1.0000 </r>
       <r>   -3.8998    1.0000 </r>
       <r>   -2.3408    1.0000 </r>
       <r>   -2.3408    1.0000 </r>
       <r>   -2.3403    1.0000 </r>
       <r>    1.1032    1.0000 </r>
       <r>    1.1040    1.0000 </r>
       <r>    1.5121    1.0000 </r>
       <r>    1.5121    1.0000 </r>
       <r>    1.5121    1.0000 </r>
       <r>    5.5309    0.0000 </r>
       <r>    5.5313    0.0000 </r>
       <r>    5.5313    0.0000 </r>
       <r>    9.1130    0.0000 </r>
       <r>   11.5928    0.0000 </r>
       <r>   11.5932    0.0000 </r>
       <r>   11.5956    0.0000 </r>
       <r>   12.5220    0.0000 </r>
      </set>
      <set comment="kpoint 36">
       <r>  -15.6049    1.0000 </r>
       <r>  -10.2615    1.0000 </r>
       <r>  -10.2614    1.0000 </r>
       <r>  -10.2614    1.0000 </r>
       <r>   -9.2683    1.0000 </r>
       <r>   -9.2680    1.0000 </r>
       <r>   -9.2680    1.0000 </r>
       <r>   -3.7308    1.0000 </r>
       <r>   -2.3432    1.0000 </r>
       <r>   -2.3432    1.0000 </r>
       <r>   -2.3427    1.0000 </r>
       <r>    1.1018    1.0000 </r>
       <r>    1.1026    1.0000 </r>
       <r>    1.6235    1.0000 </r>
       <r>    1.6235    1.0000 </r>
       <r>    1.6235    1.0000 </r>
       <r>    5.6891    0.0000 </r>
       <r>    5.6894    0.0000 </r>
       <r>    5.6894    0.0000 </r>
       <r>    8.4152    0.0000 </r>
       <r>   11.5680    0.0000 </r>
       <r>   11.5684    0.0000 </r>
       <r>   11.5697    0.0000 </r>
       <r>   12.5168    0.0000 </r>
      </set>
      <set comment="kpoint 37">
       <r>  -15.6214    1.0000 </r>
       <r>  -10.2729    1.0000 </r>
       <r>  -10.2728    1.0000 </r>
       <r>  -10.2728    1.0000 </r>
       <r>   -9.2777    1.0000 </r>
       <r>   -9.2775    1.0000 </r>
       <r>   -9.2775    1.0000 </r>
       <r>   -3.5641    1.0000 </r>
       <r>   -2.3455    1.0000 </r>
       <r>   -2.3455    1.0000 </r>
       <r>   -2.3450    1.0000 </r>
       <r>    1.1005    1.0000 </r>
       <r>    1.1012    1.0000 </r>
       <r>    1.7314    1.0000 </r>
       <r>    1.7314    1.0000 </r>
       <r>    1.7314    1.0000 </r>
       <r>    5.8458    0.0000 </r>
       <r>    5.8462    0.0000 </r>
       <r>    5.8462    0.0000 </r>
       <r>    7.8207    0.0000 </r>
       <r>   11.5447    0.0000 </r>
       <r>   11.5449    0.0000 </r>
       <r>   11.5455    0.0000 </r>
       <r>   12.5120    0.0000 </r>
      </set>
      <set comment="kpoint 38">
       <r>  -15.6349    1.0000 </r>
       <r>  -10.2822    1.0000 </r>
       <r>  -10.2820    1.0000 </r>
       <r>  -10.2820    1.0000 </r>
       <r>   -9.2854    1.0000 </r>
       <r>   -9.2852    1.0000 </r>
       <r>   -9.2852    1.0000 </r>
       <r>   -3.4218    1.0000 </r>
       <r>   -2.3473    1.0000 </r>
       <r>   -2.3473    1.0000 </r>
       <r>   -2.3468    1.0000 </r>
       <r>    1.0994    1.0000 </r>
       <r>    1.1001    1.0000 </r>
       <r>    1.8217    1.0000 </r>
       <r>    1.8217    1.0000 </r>
       <r>    1.8217    1.0000 </r>
       <r>    5.9802    0.0000 </r>
       <r>    5.9805    0.0000 </r>
       <r>    5.9805    0.0000 </r>
       <r>    7.3658    0.0000 </r>
       <r>   11.5257    0.0000 </r>
       <r>   11.5259    0.0000 </r>
       <r>   11.5278    0.0000 </r>
       <r>   12.5074    0.0000 </r>
      </set>
      <set comment="kpoint 39">
       <r>  -15.6436    1.0000 </r>
       <r>  -10.2882    1.0000 </r>
       <r>  -10.2881    1.0000 </r>
       <r>  -10.2881    1.0000 </r>
       <r>   -9.2904    1.0000 </r>
       <r>   -9.2902    1.0000 </r>
       <r>   -9.2902    1.0000 </r>
       <r>   -3.3253    1.0000 </r>
       <r>   -2.3485    1.0000 </r>
       <r>   -2.3485    1.0000 </r>
       <r>   -2.3480    1.0000 </r>
       <r>    1.0986    1.0000 </r>
       <r>    1.0994    1.0000 </r>
       <r>    1.8819    1.0000 </r>
       <r>    1.8819    1.0000 </r>
       <r>    1.8819    1.0000 </r>
       <r>    6.0716    0.0000 </r>
       <r>    6.0719    0.0000 </r>
       <r>    6.0719    0.0000 </r>
       <r>    7.0795    0.0000 </r>
       <r>   11.5132    0.0000 </r>
       <r>   11.5136    0.0000 </r>
       <r>   11.5140    0.0000 </r>
       <r>   12.5045    0.0000 </r>
      </set>
      <set comment="kpoint 40">
       <r>  -15.6466    1.0000 </r>
       <r>  -10.2902    1.0000 </r>
       <r>  -10.2901    1.0000 </r>
       <r>  -10.2901    1.0000 </r>
       <r>   -9.2921    1.0000 </r>
       <r>   -9.2919    1.0000 </r>
       <r>   -9.2919    1.0000 </r>
       <r>   -3.2911    1.0000 </r>
       <r>   -2.3489    1.0000 </r>
       <r>   -2.3489    1.0000 </r>
       <r>   -2.3484    1.0000 </r>
       <r>    1.0984    1.0000 </r>
       <r>    1.0992    1.0000 </r>
       <r>    1.9031    1.0000 </r>
       <r>    1.9031    1.0000 </r>
       <r>    1.9031    1.0000 </r>
       <r>    6.1041    0.0000 </r>
       <r>    6.1044    0.0000 </r>
       <r>    6.1044    0.0000 </r>
       <r>    6.9817    0.0000 </r>
       <r>   11.5089    0.0000 </r>
       <r>   11.5093    0.0000 </r>
       <r>   11.5099    0.0000 </r>
       <r>   12.5036    0.0000 </r>
      </set>
     </set>
    </set>
   </array>
  </eigenvalues>
  <separator name="orbital magnetization" >
   <v name="MAGDIPOLOUT">      0.00000000      0.00000000      0.00000000</v>
  </separator>
  <dos>
   <i name="efermi">      2.42848951 </i>
   <total>
    <array>
     <dimension dim="1">gridpoints</dimension>
     <dimension dim="2">spin</dimension>
     <field>energy</field>
     <field>total</field>
     <field>integrated</field>
     <set>
      <set comment="spin 1">
       <r>   -17.1459     0.0000     0.0000 </r>
       <r>   -17.0359     0.0000     0.0000 </r>
       <r>   -16.9260     0.0000     0.0000 </r>
       <r>   -16.8160     0.0000     0.0000 </r>
       <r>   -16.7061     0.0000     0.0000 </r>
       <r>   -16.5961     0.0000     0.0000 </r>
       <r>   -16.4862     0.0000     0.0000 </r>
       <r>   -16.3762     0.0000     0.0000 </r>
       <r>   -16.2663     0.0000     0.0000 </r>
       <r>   -16.1563     0.0000     0.0000 </r>
       <r>   -16.0464     0.0000     0.0000 </r>
       <r>   -15.9364     0.0000     0.0000 </r>
       <r>   -15.8265     0.0114     0.0013 </r>
       <r>   -15.7165     0.4261     0.0481 </r>
       <r>   -15.6066     2.5163     0.3248 </r>
       <r>   -15.4966     3.3900     0.6975 </r>
       <r>   -15.3867     1.6095     0.8745 </r>
       <r>   -15.2767     0.7866     0.9610 </r>
       <r>   -15.1668     0.6260     1.0298 </r>
       <r>   -15.0568     0.5304     1.0881 </r>
       <r>   -14.9469     0.4920     1.1422 </r>
       <r>   -14.8369     0.4415     1.1907 </r>
       <r>   -14.7270     0.3994     1.2347 </r>
       <r>   -14.6170     0.4284     1.2818 </r>
       <r>   -14.5071     0.2957     1.3143 </r>
       <r>   -14.3971     0.4169     1.3601 </r>
       <r>   -14.2872     0.4430     1.4088 </r>
       <r>   -14.1773     2.1095     1.6408 </r>
       <r>   -14.0673     5.4805     2.2433 </r>
       <r>   -13.9574     2.9583     2.5686 </r>
       <r>   -13.8474     0.4340     2.6163 </r>
       <r>   -13.7375     0.4217     2.6627 </r>
       <r>   -13.6275     0.2957     2.6952 </r>
       <r>   -13.5176     0.0951     2.7056 </r>
       <r>   -13.4076     0.3151     2.7403 </r>
       <r>   -13.2977     0.4109     2.7855 </r>
       <r>   -13.1877     0.1292     2.7997 </r>
       <r>   -13.0778     0.1002     2.8107 </r>
       <r>   -12.9678     0.3865     2.8532 </r>
       <r>   -12.8579     0.3538     2.8921 </r>
       <r>   -12.7479     0.0728     2.9001 </r>
       <r>   -12.6380     0.0861     2.9096 </r>
       <r>   -12.5280     0.3789     2.9512 </r>
       <r>   -12.4181     0.3662     2.9915 </r>
       <r>   -12.3081     0.0757     2.9998 </r>
       <r>   -12.1982     0.0377     3.0040 </r>
       <r>   -12.0882     0.2825     3.0350 </r>
       <r>   -11.9783     0.4367     3.0830 </r>
       <r>   -11.8683     0.1461     3.0991 </r>
       <r>   -11.7584     0.0130     3.1005 </r>
       <r>   -11.6484     0.1108     3.1127 </r>
       <r>   -11.5385     0.4182     3.1587 </r>
       <r>   -11.4285     0.4410     3.2072 </r>
       <r>   -11.3186     2.2949     3.4595 </r>
       <r>   -11.2086     7.2954     4.2616 </r>
       <r>   -11.0987     5.5379     4.8705 </r>
       <r>   -10.9887     2.5945     5.1558 </r>
       <r>   -10.8788     1.6931     5.3419 </r>
       <r>   -10.7688     1.2927     5.4841 </r>
       <r>   -10.6589     1.2386     5.6202 </r>
       <r>   -10.5489     1.4587     5.7806 </r>
       <r>   -10.4390     1.7051     5.9681 </r>
       <r>   -10.3290     3.8771     6.3944 </r>
       <r>   -10.2191     9.2434     7.4107 </r>
       <r>   -10.1091     4.9107     7.9506 </r>
       <r>    -9.9992     0.4436     7.9994 </r>
       <r>    -9.8892     0.0055     8.0000 </r>
       <r>    -9.7793     0.0000     8.0000 </r>
       <r>    -9.6693     0.0000     8.0000 </r>
       <r>    -9.5594     0.0005     8.0001 </r>
       <r>    -9.4494     0.0974     8.0108 </r>
       <r>    -9.3395     2.4046     8.2751 </r>
       <r>    -9.2295     8.8368     9.2467 </r>
       <r>    -9.1196     5.8693     9.8921 </r>
       <r>    -9.0096     1.2854    10.0334 </r>
       <r>    -8.8997     1.3311    10.1797 </r>
       <r>    -8.7897     0.9613    10.2854 </r>
       <r>    -8.6798     0.2774    10.3159 </r>
       <r>    -8.5699     0.8016    10.4041 </r>
       <r>    -8.4599     0.8545    10.4980 </r>
       <r>    -8.3500     0.5989    10.5639 </r>
       <r>    -8.2400     0.8131    10.6533 </r>
       <r>    -8.1301     0.9940    10.7625 </r>
       <r>    -8.0201     0.3260    10.7984 </r>
       <r>    -7.9102     0.1312    10.8128 </r>
       <r>    -7.8002     0.8535    10.9067 </r>
       <r>    -7.6903     1.2696    11.0463 </r>
       <r>    -7.5803     0.4579    11.0966 </r>
       <r>    -7.4704     0.2252    11.1214 </r>
       <r>    -7.3604     0.8751    11.2176 </r>
       <r>    -7.2505     0.6682    11.2910 </r>
       <r>    -7.1405     0.1580    11.3084 </r>
       <r>    -7.0306     0.7358    11.3893 </r>
       <r>    -6.9206     1.3783    11.5409 </r>
       <r>    -6.8107     0.5171    11.5977 </r>
       <r>    -6.7007     0.3058    11.6313 </r>
       <r>    -6.5908     1.4892    11.7951 </r>
       <r>    -6.4808     4.8859    12.3323 </r>
       <r>    -6.3709     5.3510    12.9206 </r>
       <r>    -6.2609     1.3930    13.0738 </r>
       <r>    -6.1510     0.2257    13.0986 </r>
       <r>    -6.0410     0.0127    13.1000 </r>
       <r>    -5.9311     0.0001    13.1000 </r>
       <r>    -5.8211     0.0005    13.1001 </r>
       <r>    -5.7112     0.0368    13.1041 </r>
       <r>    -5.6012     0.3293    13.1403 </r>
       <r>    -5.4913     0.4461    13.1894 </r>
       <r>    -5.3813     0.0940    13.1997 </r>
       <r>    -5.2714     0.0028    13.2000 </r>
       <r>    -5.1614     0.0126    13.2014 </r>
       <r>    -5.0515     0.6924    13.2775 </r>
       <r>    -4.9415     4.8900    13.8152 </r>
       <r>    -4.8316     5.6061    14.4316 </r>
       <r>    -4.7216     2.0283    14.6546 </r>
       <r>    -4.6117     0.4061    14.6992 </r>
       <r>    -4.5017     0.2805    14.7301 </r>
       <r>    -4.3918     1.0353    14.8439 </r>
       <r>    -4.2818     1.2378    14.9800 </r>
       <r>    -4.1719     1.5770    15.1534 </r>
       <r>    -4.0619     1.8248    15.3540 </r>
       <r>    -3.9520     1.9652    15.5701 </r>
       <r>    -3.8420     1.0349    15.6839 </r>
       <r>    -3.7321     0.5743    15.7470 </r>
       <r>    -3.6221     0.9903    15.8559 </r>
       <r>    -3.5122     1.6141    16.0334 </r>
       <r>    -3.4022     3.3712    16.4040 </r>
       <r>    -3.2923     7.3052    17.2072 </r>
       <r>    -3.1823     4.3173    17.6819 </r>
       <r>    -3.0724     1.6621    17.8646 </r>
       <r>    -2.9624     0.5817    17.9286 </r>
       <r>    -2.8525     1.1463    18.0546 </r>
       <r>    -2.7426     1.4115    18.2098 </r>
       <r>    -2.6326     1.0947    18.3302 </r>
       <r>    -2.5227     2.5258    18.6079 </r>
       <r>    -2.4127     5.9217    19.2590 </r>
       <r>    -2.3028    12.0840    20.5876 </r>
       <r>    -2.1928     6.8531    21.3411 </r>
       <r>    -2.0829     2.1647    21.5791 </r>
       <r>    -1.9729     1.7733    21.7741 </r>
       <r>    -1.8630     2.0341    21.9977 </r>
       <r>    -1.7530     1.5933    22.1729 </r>
       <r>    -1.6431     1.9031    22.3821 </r>
       <r>    -1.5331     2.3104    22.6362 </r>
       <r>    -1.4232     1.2349    22.7720 </r>
       <r>    -1.3132     0.4437    22.8207 </r>
       <r>    -1.2033     1.2010    22.9528 </r>
       <r>    -1.0933     1.3862    23.1052 </r>
       <r>    -0.9834     3.4465    23.4841 </r>
       <r>    -0.8734     5.9304    24.1362 </r>
       <r>    -0.7635     1.7724    24.3310 </r>
       <r>    -0.6535     1.0547    24.4470 </r>
       <r>    -0.5436     1.0933    24.5672 </r>
       <r>    -0.4336     0.4338    24.6149 </r>
       <r>    -0.3237     0.6901    24.6908 </r>
       <r>    -0.2137     0.5963    24.7563 </r>
       <r>    -0.1038     0.6457    24.8273 </r>
       <r>     0.0062     1.1074    24.9491 </r>
       <r>     0.1161     0.6037    25.0155 </r>
       <r>     0.2261     0.6400    25.0858 </r>
       <r>     0.3360     0.7784    25.1714 </r>
       <r>     0.4460     0.8440    25.2642 </r>
       <r>     0.5559     0.9904    25.3731 </r>
       <r>     0.6659     0.7447    25.4550 </r>
       <r>     0.7758     2.2200    25.6991 </r>
       <r>     0.8858     4.6292    26.2080 </r>
       <r>     0.9957     4.8242    26.7385 </r>
       <r>     1.1057     8.8086    27.7070 </r>
       <r>     1.2156     8.6984    28.6633 </r>
       <r>     1.3256     5.4303    29.2604 </r>
       <r>     1.4355     3.5876    29.6548 </r>
       <r>     1.5455     4.1166    30.1075 </r>
       <r>     1.6554     4.6687    30.6208 </r>
       <r>     1.7654     3.8559    31.0447 </r>
       <r>     1.8753     4.6940    31.5608 </r>
       <r>     1.9853     3.4244    31.9373 </r>
       <r>     2.0952     0.5569    31.9986 </r>
       <r>     2.2052     0.0129    32.0000 </r>
       <r>     2.3151     0.0000    32.0000 </r>
       <r>     2.4251     0.0000    32.0000 </r>
       <r>     2.5350     0.0000    32.0000 </r>
       <r>     2.6450     0.0000    32.0000 </r>
       <r>     2.7549     0.0000    32.0000 </r>
       <r>     2.8648     0.0000    32.0000 </r>
       <r>     2.9748     0.0000    32.0000 </r>
       <r>     3.0847     0.0000    32.0000 </r>
       <r>     3.1947     0.0000    32.0000 </r>
       <r>     3.3046     0.0000    32.0000 </r>
       <r>     3.4146     0.0000    32.0000 </r>
       <r>     3.5245     0.0000    32.0000 </r>
       <r>     3.6345     0.0000    32.0000 </r>
       <r>     3.7444     0.0000    32.0000 </r>
       <r>     3.8544     0.0000    32.0000 </r>
       <r>     3.9643     0.0000    32.0000 </r>
       <r>     4.0743     0.0000    32.0000 </r>
       <r>     4.1842     0.0000    32.0000 </r>
       <r>     4.2942     0.0000    32.0000 </r>
       <r>     4.4041     0.0000    32.0000 </r>
       <r>     4.5141     0.0000    32.0000 </r>
       <r>     4.6240     0.0000    32.0000 </r>
       <r>     4.7340     0.0000    32.0000 </r>
       <r>     4.8439     0.0000    32.0000 </r>
       <r>     4.9539     0.0018    32.0002 </r>
       <r>     5.0638     0.1587    32.0177 </r>
       <r>     5.1738     1.7897    32.2144 </r>
       <r>     5.2837     3.5463    32.6043 </r>
       <r>     5.3937     2.6101    32.8913 </r>
       <r>     5.5036     1.7570    33.0845 </r>
       <r>     5.6136     1.4886    33.2482 </r>
       <r>     5.7235     1.4804    33.4109 </r>
       <r>     5.8335     1.6890    33.5966 </r>
       <r>     5.9434     1.5860    33.7710 </r>
       <r>     6.0534     2.6049    34.0574 </r>
       <r>     6.1633     3.4995    34.4422 </r>
       <r>     6.2733     2.3985    34.7059 </r>
       <r>     6.3832     1.6048    34.8824 </r>
       <r>     6.4932     1.7608    35.0760 </r>
       <r>     6.6031     2.9838    35.4040 </r>
       <r>     6.7131     3.1149    35.7465 </r>
       <r>     6.8230     2.0026    35.9667 </r>
       <r>     6.9330     2.2064    36.2093 </r>
       <r>     7.0429     3.7035    36.6165 </r>
       <r>     7.1529     4.0816    37.0652 </r>
       <r>     7.2628     1.5869    37.2397 </r>
       <r>     7.3728     0.5974    37.3054 </r>
       <r>     7.4827     0.4117    37.3507 </r>
       <r>     7.5927     0.2736    37.3808 </r>
       <r>     7.7026     0.2254    37.4055 </r>
       <r>     7.8126     0.6647    37.4786 </r>
       <r>     7.9225     0.9139    37.5791 </r>
       <r>     8.0325     0.2150    37.6028 </r>
       <r>     8.1424     0.2112    37.6260 </r>
       <r>     8.2524     0.1988    37.6478 </r>
       <r>     8.3623     0.1409    37.6633 </r>
       <r>     8.4723     0.5023    37.7186 </r>
       <r>     8.5822     0.6412    37.7891 </r>
       <r>     8.6921     0.4084    37.8340 </r>
       <r>     8.8021     0.3230    37.8695 </r>
       <r>     8.9120     1.0701    37.9871 </r>
       <r>     9.0220     1.1970    38.1187 </r>
       <r>     9.1319     0.5932    38.1840 </r>
       <r>     9.2419     0.7068    38.2617 </r>
       <r>     9.3518     0.9364    38.3646 </r>
       <r>     9.4618     0.4862    38.4181 </r>
       <r>     9.5717     0.3219    38.4535 </r>
       <r>     9.6817     0.4906    38.5074 </r>
       <r>     9.7916     0.5511    38.5680 </r>
       <r>     9.9016     0.5447    38.6279 </r>
       <r>    10.0115     0.3228    38.6634 </r>
       <r>    10.1215     0.3684    38.7039 </r>
       <r>    10.2314     0.6379    38.7740 </r>
       <r>    10.3414     0.7184    38.8530 </r>
       <r>    10.4513     0.3821    38.8950 </r>
       <r>    10.5613     0.1802    38.9148 </r>
       <r>    10.6712     0.3293    38.9510 </r>
       <r>    10.7812     0.6312    39.0204 </r>
       <r>    10.8911     0.7522    39.1031 </r>
       <r>    11.0011     0.7181    39.1821 </r>
       <r>    11.1110     2.2790    39.4327 </r>
       <r>    11.2210     2.0827    39.6617 </r>
       <r>    11.3309     0.5923    39.7268 </r>
       <r>    11.4409     3.0202    40.0588 </r>
       <r>    11.5508     9.8571    41.1426 </r>
       <r>    11.6608    11.3107    42.3862 </r>
       <r>    11.7707     6.1191    43.0590 </r>
       <r>    11.8807     3.4818    43.4418 </r>
       <r>    11.9906     2.2887    43.6935 </r>
       <r>    12.1006     1.8791    43.9001 </r>
       <r>    12.2105     4.2418    44.3665 </r>
       <r>    12.3205     7.2814    45.1670 </r>
       <r>    12.4304     4.7170    45.6857 </r>
       <r>    12.5404     5.6161    46.3032 </r>
       <r>    12.6503     4.9823    46.8509 </r>
       <r>    12.7603     1.9078    47.0607 </r>
       <r>    12.8702     1.3537    47.2095 </r>
       <r>    12.9802     1.7011    47.3966 </r>
       <r>    13.0901     1.2542    47.5345 </r>
       <r>    13.2001     1.1094    47.6565 </r>
       <r>    13.3100     0.3947    47.6999 </r>
       <r>    13.4200     0.2296    47.7251 </r>
       <r>    13.5299     0.5155    47.7818 </r>
       <r>    13.6399     0.5348    47.8406 </r>
       <r>    13.7498     0.4400    47.8890 </r>
       <r>    13.8598     0.2066    47.9117 </r>
       <r>    13.9697     0.2593    47.9402 </r>
       <r>    14.0797     0.0856    47.9496 </r>
       <r>    14.1896     0.0113    47.9508 </r>
       <r>    14.2995     0.1223    47.9643 </r>
       <r>    14.4095     0.2514    47.9919 </r>
       <r>    14.5194     0.0708    47.9997 </r>
       <r>    14.6294     0.0025    48.0000 </r>
       <r>    14.7393     0.0000    48.0000 </r>
       <r>    14.8493     0.0000    48.0000 </r>
       <r>    14.9592     0.0000    48.0000 </r>
       <r>    15.0692     0.0000    48.0000 </r>
       <r>    15.1791     0.0000    48.0000 </r>
       <r>    15.2891     0.0000    48.0000 </r>
       <r>    15.3990     0.0000    48.0000 </r>
       <r>    15.5090     0.0000    48.0000 </r>
       <r>    15.6189     0.0000    48.0000 </r>
       <r>    15.7289     0.0000    48.0000 </r>
       <r>    15.8388     0.0000    48.0000 </r>
      </set>
     </set>
    </array>
   </total>
   <partial>
    <array>
     <dimension dim="1">gridpoints</dimension>
     <dimension dim="2">spin</dimension>
     <dimension dim="3">ion</dimension>
     <field>energy</field>
     <field>  s</field>
     <field> py</field>
     <field> pz</field>
     <field> px</field>
     <field>dxy</field>
     <field>dyz</field>
     <field>dz2</field>
     <field>dxz</field>
     <field>dx2</field>
     <set>
      <set comment="ion 1">
       <set comment="spin 1">
        <r>   -17.1459     0.0000     0.0000     0.0000     0.0000     0.0000     0.0000     0.0000     0.0000     0.0000 </r>
        <r>   -17.0359     0.0000     0.0000     0.0000     0.0000     0.0000     0.0000     0.0000     0.0000     0.0000 </r>
        <r>   -16.9260     0.0000     0.0000     0.0000     0.0000     0.0000     0.0000     0.0000     0.0000     0.0000 </r>
        <r>   -16.8160     0.0000     0.0000     0.0000     0.0000     0.0000     0.0000     0.0000     0.0000     0.0000 </r>
        <r>   -16.7061     0.0000     0.0000     0.0000     0.0000     0.0000     0.0000     0.0000     0.0000     0.0000 </r>
        <r>   -16.5961     0.0000     0.0000     0.0000     0.0000     0.0000     0.0000     0.0000     0.0000     0.0000 </r>
        <r>   -16.4862     0.0000     0.0000     0.0000     0.0000     0.0000     0.0000     0.0000     0.0000     0.0000 </r>
        <r>   -16.3762     0.0000     0.0000     0.0000     0.0000     0.0000     0.0000     0.0000     0.0000     0.0000 </r>
        <r>   -16.2663     0.0000     0.0000     0.0000     0.0000     0.0000     0.0000     0.0000     0.0000     0.0000 </r>
        <r>   -16.1563     0.0000     0.0000     0.0000     0.0000     0.0000     0.0000     0.0000     0.0000     0.0000 </r>
        <r>   -16.0464     0.0000     0.0000     0.0000     0.0000     0.0000     0.0000     0.0000     0.0000     0.0000 </r>
        <r>   -15.9364     0.0000     0.0000     0.0000     0.0000     0.0000     0.0000     0.0000     0.0000     0.0000 </r>
        <r>   -15.8265     0.0009     0.0000     0.0000     0.0000     0.0000     0.0000     0.0000     0.0000     0.0000 </r>
        <r>   -15.7165     0.0343     0.0000     0.0000     0.0000     0.0000     0.0000     0.0000     0.0000     0.0000 </r>
        <r>   -15.6066     0.2028     0.0001     0.0000     0.0000     0.0000     0.0000     0.0000     0.0000     0.0000 </r>
        <r>   -15.4966     0.2741     0.0004     0.0000     0.0000     0.0000     0.0000     0.0000     0.0000     0.0000 </r>
        <r>   -15.3867     0.1300     0.0007     0.0000     0.0000     0.0000     0.0000     0.0000     0.0000     0.0000 </r>
        <r>   -15.2767     0.0630     0.0010     0.0000     0.0000     0.0000     0.0000     0.0000     0.0000     0.0000 </r>
        <r>   -15.1668     0.0497     0.0012     0.0000     0.0000     0.0000     0.0000     0.0000     0.0000     0.0000 </r>
        <r>   -15.0568     0.0419     0.0013     0.0000     0.0000     0.0000     0.0000     0.0000     0.0000     0.0000 </r>
        <r>   -14.9469     0.0386     0.0016     0.0000     0.0000     0.0000     0.0000     0.0000     0.0000     0.0000 </r>
        <r>   -14.8369     0.0346     0.0016     0.0000     0.0000     0.0000     0.0000     0.0000     0.0000     0.0000 </r>
        <r>   -14.7270     0.0310     0.0017     0.0000     0.0000     0.0000     0.0000     0.0000     0.0000     0.0000 </r>
        <r>   -14.6170     0.0332     0.0020     0.0000     0.0000     0.0000     0.0000     0.0000     0.0000     0.0000 </r>
        <r>   -14.5071     0.0227     0.0016     0.0000     0.0000     0.0000     0.0000     0.0000     0.0000     0.0000 </r>
        <r>   -14.3971     0.0318     0.0026     0.0000     0.0000     0.0000     0.0000     0.0000     0.0000     0.0000 </r>
        <r>   -14.2872     0.0337     0.0030     0.0000     0.0000     0.0000     0.0000     0.0000     0.0000     0.0000 </r>
        <r>   -14.1773     0.1579     0.0163     0.0000     0.0000     0.0000     0.0000     0.0000     0.0000     0.0000 </r>
        <r>   -14.0673     0.4112     0.0426     0.0000     0.0000     0.0000     0.0000     0.0000     0.0000     0.0000 </r>
        <r>   -13.9574     0.2226     0.0231     0.0000     0.0000     0.0000     0.0000     0.0000     0.0000     0.0000 </r>
        <r>   -13.8474     0.0324     0.0036     0.0000     0.0000     0.0000     0.0000     0.0000     0.0000     0.0000 </r>
        <r>   -13.7375     0.0311     0.0040     0.0000     0.0000     0.0000     0.0000     0.0000     0.0000     0.0000 </r>
        <r>   -13.6275     0.0219     0.0028     0.0000     0.0000     0.0000     0.0000     0.0000     0.0000     0.0000 </r>
        <r>   -13.5176     0.0069     0.0010     0.0000     0.0000     0.0000     0.0000     0.0000     0.0000     0.0000 </r>
        <r>   -13.4076     0.0228     0.0036     0.0000     0.0000     0.0000     0.0000     0.0000     0.0000     0.0000 </r>
        <r>   -13.2977     0.0298     0.0047     0.0000     0.0000     0.0000     0.0000     0.0000     0.0000     0.0000 </r>
        <r>   -13.1877     0.0094     0.0015     0.0000     0.0000     0.0000     0.0000     0.0000     0.0000     0.0000 </r>
        <r>   -13.0778     0.0071     0.0013     0.0000     0.0000     0.0000     0.0000     0.0000     0.0000     0.0000 </r>
        <r>   -12.9678     0.0274     0.0052     0.0000     0.0000     0.0000     0.0000     0.0000     0.0000     0.0000 </r>
        <r>   -12.8579     0.0252     0.0048     0.0000     0.0000     0.0000     0.0000     0.0000     0.0000     0.0000 </r>
[...]
        <r>  0.0000  0.0291  0.0000  0.0361  0.0000  0.0000  0.0000  0.0000  0.0000 </r>
        <r>  0.0000  0.0292  0.0000  0.0360  0.0000  0.0000  0.0000  0.0000  0.0000 </r>
        <r>  0.0000  0.0292  0.0000  0.0360  0.0000  0.0000  0.0000  0.0000  0.0000 </r>
        <r>  0.0000  0.0291  0.0000  0.0359  0.0000  0.0000  0.0000  0.0000  0.0000 </r>
        <r>  0.0000  0.0292  0.0000  0.0361  0.0000  0.0000  0.0000  0.0000  0.0000 </r>
        <r>  0.0000  0.0291  0.0000  0.0361  0.0000  0.0000  0.0000  0.0000  0.0000 </r>
       </set>
      </set>
      <set comment="kpoint 40">
       <set comment="band 1">
        <r>  0.0802  0.0000  0.0000  0.0000  0.0000  0.0000  0.0000  0.0000  0.0000 </r>
        <r>  0.0802  0.0000  0.0000  0.0000  0.0000  0.0000  0.0000  0.0000  0.0000 </r>
        <r>  0.0802  0.0000  0.0000  0.0000  0.0000  0.0000  0.0000  0.0000  0.0000 </r>
        <r>  0.0802  0.0000  0.0000  0.0000  0.0000  0.0000  0.0000  0.0000  0.0000 </r>
        <r>  0.0802  0.0000  0.0000  0.0000  0.0000  0.0000  0.0000  0.0000  0.0000 </r>
        <r>  0.0802  0.0000  0.0000  0.0000  0.0000  0.0000  0.0000  0.0000  0.0000 </r>
        <r>  0.0802  0.0000  0.0000  0.0000  0.0000  0.0000  0.0000  0.0000  0.0000 </r>
        <r>  0.0802  0.0000  0.0000  0.0000  0.0000  0.0000  0.0000  0.0000  0.0000 </r>
       </set>
       <set comment="band 2">
        <r>  0.0750  0.0041  0.0000  0.0118  0.0000  0.0000  0.0000  0.0000  0.0000 </r>
        <r>  0.0733  0.0040  0.0000  0.0121  0.0000  0.0000  0.0000  0.0000  0.0000 </r>
        <r>  0.0766  0.0039  0.0000  0.0118  0.0000  0.0000  0.0000  0.0000  0.0000 </r>
        <r>  0.0750  0.0039  0.0000  0.0121  0.0000  0.0000  0.0000  0.0000  0.0000 </r>
        <r>  0.0733  0.0040  0.0000  0.0121  0.0000  0.0000  0.0000  0.0000  0.0000 </r>
        <r>  0.0750  0.0041  0.0000  0.0118  0.0000  0.0000  0.0000  0.0000  0.0000 </r>
        <r>  0.0750  0.0039  0.0000  0.0121  0.0000  0.0000  0.0000  0.0000  0.0000 </r>
        <r>  0.0766  0.0039  0.0000  0.0118  0.0000  0.0000  0.0000  0.0000  0.0000 </r>
       </set>
       <set comment="band 3">
        <r>  0.1481  0.0036  0.0000  0.0046  0.0000  0.0000  0.0000  0.0000  0.0000 </r>
        <r>  0.0020  0.0191  0.0000  0.0046  0.0000  0.0000  0.0000  0.0000  0.0000 </r>
        <r>  0.0020  0.0191  0.0000  0.0046  0.0000  0.0000  0.0000  0.0000  0.0000 </r>
        <r>  0.1477  0.0036  0.0000  0.0046  0.0000  0.0000  0.0000  0.0000  0.0000 </r>
        <r>  0.0020  0.0191  0.0000  0.0046  0.0000  0.0000  0.0000  0.0000  0.0000 </r>
        <r>  0.1481  0.0036  0.0000  0.0046  0.0000  0.0000  0.0000  0.0000  0.0000 </r>
        <r>  0.1477  0.0036  0.0000  0.0046  0.0000  0.0000  0.0000  0.0000  0.0000 </r>
        <r>  0.0020  0.0191  0.0000  0.0046  0.0000  0.0000  0.0000  0.0000  0.0000 </r>
       </set>
       <set comment="band 4">
        <r>  0.0018  0.0163  0.0000  0.0075  0.0000  0.0000  0.0000  0.0000  0.0000 </r>
        <r>  0.1495  0.0008  0.0000  0.0072  0.0000  0.0000  0.0000  0.0000  0.0000 </r>
        <r>  0.1463  0.0009  0.0000  0.0075  0.0000  0.0000  0.0000  0.0000  0.0000 </r>
        <r>  0.0022  0.0165  0.0000  0.0072  0.0000  0.0000  0.0000  0.0000  0.0000 </r>
        <r>  0.1495  0.0008  0.0000  0.0072  0.0000  0.0000  0.0000  0.0000  0.0000 </r>
        <r>  0.0018  0.0163  0.0000  0.0075  0.0000  0.0000  0.0000  0.0000  0.0000 </r>
        <r>  0.0022  0.0165  0.0000  0.0072  0.0000  0.0000  0.0000  0.0000  0.0000 </r>
        <r>  0.1463  0.0009  0.0000  0.0075  0.0000  0.0000  0.0000  0.0000  0.0000 </r>
       </set>
       <set comment="band 5">
        <r>  0.0342  0.0122  0.0000  0.0370  0.0000  0.0000  0.0000  0.0000  0.0000 </r>
        <r>  0.0343  0.0123  0.0000  0.0368  0.0000  0.0000  0.0000  0.0000  0.0000 </r>
        <r>  0.0340  0.0123  0.0000  0.0370  0.0000  0.0000  0.0000  0.0000  0.0000 </r>
        <r>  0.0342  0.0124  0.0000  0.0368  0.0000  0.0000  0.0000  0.0000  0.0000 </r>
        <r>  0.0343  0.0123  0.0000  0.0368  0.0000  0.0000  0.0000  0.0000  0.0000 </r>
        <r>  0.0342  0.0122  0.0000  0.0370  0.0000  0.0000  0.0000  0.0000  0.0000 </r>
        <r>  0.0342  0.0124  0.0000  0.0368  0.0000  0.0000  0.0000  0.0000  0.0000 </r>
        <r>  0.0340  0.0123  0.0000  0.0370  0.0000  0.0000  0.0000  0.0000  0.0000 </r>
       </set>
       <set comment="band 6">
        <r>  0.0594  0.0246  0.0000  0.0065  0.0000  0.0000  0.0000  0.0000  0.0000 </r>
        <r>  0.0088  0.0611  0.0000  0.0064  0.0000  0.0000  0.0000  0.0000  0.0000 </r>
        <r>  0.0089  0.0610  0.0000  0.0065  0.0000  0.0000  0.0000  0.0000  0.0000 </r>
        <r>  0.0595  0.0245  0.0000  0.0064  0.0000  0.0000  0.0000  0.0000  0.0000 </r>
        <r>  0.0088  0.0611  0.0000  0.0064  0.0000  0.0000  0.0000  0.0000  0.0000 </r>
        <r>  0.0594  0.0246  0.0000  0.0065  0.0000  0.0000  0.0000  0.0000  0.0000 </r>
        <r>  0.0595  0.0245  0.0000  0.0064  0.0000  0.0000  0.0000  0.0000  0.0000 </r>
        <r>  0.0089  0.0610  0.0000  0.0065  0.0000  0.0000  0.0000  0.0000  0.0000 </r>
       </set>
       <set comment="band 7">
        <r>  0.0089  0.0371  0.0000  0.0304  0.0000  0.0000  0.0000  0.0000  0.0000 </r>
        <r>  0.0593  0.0005  0.0000  0.0306  0.0000  0.0000  0.0000  0.0000  0.0000 </r>
        <r>  0.0596  0.0005  0.0000  0.0304  0.0000  0.0000  0.0000  0.0000  0.0000 </r>
        <r>  0.0088  0.0369  0.0000  0.0306  0.0000  0.0000  0.0000  0.0000  0.0000 </r>
        <r>  0.0593  0.0005  0.0000  0.0306  0.0000  0.0000  0.0000  0.0000  0.0000 </r>
        <r>  0.0089  0.0371  0.0000  0.0304  0.0000  0.0000  0.0000  0.0000  0.0000 </r>
        <r>  0.0088  0.0369  0.0000  0.0306  0.0000  0.0000  0.0000  0.0000  0.0000 </r>
        <r>  0.0596  0.0005  0.0000  0.0304  0.0000  0.0000  0.0000  0.0000  0.0000 </r>
       </set>
       <set comment="band 8">
        <r>  0.0000  0.0000  0.0585  0.0000  0.0000  0.0000  0.0000  0.0000  0.0000 </r>
        <r>  0.0000  0.0000  0.0585  0.0000  0.0000  0.0000  0.0000  0.0000  0.0000 </r>
        <r>  0.0000  0.0000  0.0585  0.0000  0.0000  0.0000  0.0000  0.0000  0.0000 </r>
        <r>  0.0000  0.0000  0.0585  0.0000  0.0000  0.0000  0.0000  0.0000  0.0000 </r>
        <r>  0.0000  0.0000  0.0585  0.0000  0.0000  0.0000  0.0000  0.0000  0.0000 </r>
        <r>  0.0000  0.0000  0.0585  0.0000  0.0000  0.0000  0.0000  0.0000  0.0000 </r>
        <r>  0.0000  0.0000  0.0585  0.0000  0.0000  0.0000  0.0000  0.0000  0.0000 </r>
        <r>  0.0000  0.0000  0.0585  0.0000  0.0000  0.0000  0.0000  0.0000  0.0000 </r>
       </set>
       <set comment="band 9">
        <r>  0.0000  0.0599  0.0000  0.0077  0.0000  0.0000  0.0000  0.0000  0.0000 </r>
        <r>  0.0000  0.0598  0.0000  0.0701  0.0000  0.0000  0.0000  0.0000  0.0000 </r>
        <r>  0.0000  0.0599  0.0000  0.0700  0.0000  0.0000  0.0000  0.0000  0.0000 </r>
        <r>  0.0000  0.0598  0.0000  0.0077  0.0000  0.0000  0.0000  0.0000  0.0000 </r>
        <r>  0.0000  0.0598  0.0000  0.0701  0.0000  0.0000  0.0000  0.0000  0.0000 </r>
        <r>  0.0000  0.0599  0.0000  0.0077  0.0000  0.0000  0.0000  0.0000  0.0000 </r>
        <r>  0.0000  0.0598  0.0000  0.0077  0.0000  0.0000  0.0000  0.0000  0.0000 </r>
        <r>  0.0000  0.0599  0.0000  0.0700  0.0000  0.0000  0.0000  0.0000  0.0000 </r>
       </set>
       <set comment="band 10">
        <r>  0.0000  0.0143  0.0000  0.1155  0.0000  0.0000  0.0000  0.0000  0.0000 </r>
        <r>  0.0000  0.0141  0.0000  0.0533  0.0000  0.0000  0.0000  0.0000  0.0000 </r>
        <r>  0.0000  0.0143  0.0000  0.0534  0.0000  0.0000  0.0000  0.0000  0.0000 </r>
        <r>  0.0000  0.0141  0.0000  0.1158  0.0000  0.0000  0.0000  0.0000  0.0000 </r>
        <r>  0.0000  0.0141  0.0000  0.0533  0.0000  0.0000  0.0000  0.0000  0.0000 </r>
        <r>  0.0000  0.0143  0.0000  0.1155  0.0000  0.0000  0.0000  0.0000  0.0000 </r>
        <r>  0.0000  0.0141  0.0000  0.1158  0.0000  0.0000  0.0000  0.0000  0.0000 </r>
        <r>  0.0000  0.0143  0.0000  0.0534  0.0000  0.0000  0.0000  0.0000  0.0000 </r>
       </set>
       <set comment="band 11">
        <r>  0.0000  0.0739  0.0000  0.0248  0.0000  0.0000  0.0000  0.0000  0.0000 </r>
        <r>  0.0000  0.0742  0.0000  0.0247  0.0000  0.0000  0.0000  0.0000  0.0000 </r>
        <r>  0.0000  0.0739  0.0000  0.0246  0.0000  0.0000  0.0000  0.0000  0.0000 </r>
        <r>  0.0000  0.0742  0.0000  0.0245  0.0000  0.0000  0.0000  0.0000  0.0000 </r>
        <r>  0.0000  0.0742  0.0000  0.0247  0.0000  0.0000  0.0000  0.0000  0.0000 </r>
        <r>  0.0000  0.0739  0.0000  0.0248  0.0000  0.0000  0.0000  0.0000  0.0000 </r>
        <r>  0.0000  0.0742  0.0000  0.0245  0.0000  0.0000  0.0000  0.0000  0.0000 </r>
        <r>  0.0000  0.0739  0.0000  0.0246  0.0000  0.0000  0.0000  0.0000  0.0000 </r>
       </set>
       <set comment="band 12">
        <r>  0.0000  0.0259  0.0000  0.0777  0.0000  0.0000  0.0000  0.0000  0.0000 </r>
        <r>  0.0000  0.0259  0.0000  0.0777  0.0000  0.0000  0.0000  0.0000  0.0000 </r>
        <r>  0.0000  0.0259  0.0000  0.0777  0.0000  0.0000  0.0000  0.0000  0.0000 </r>
        <r>  0.0000  0.0259  0.0000  0.0777  0.0000  0.0000  0.0000  0.0000  0.0000 </r>
        <r>  0.0000  0.0259  0.0000  0.0777  0.0000  0.0000  0.0000  0.0000  0.0000 </r>
        <r>  0.0000  0.0259  0.0000  0.0777  0.0000  0.0000  0.0000  0.0000  0.0000 </r>
        <r>  0.0000  0.0259  0.0000  0.0777  0.0000  0.0000  0.0000  0.0000  0.0000 </r>
        <r>  0.0000  0.0259  0.0000  0.0777  0.0000  0.0000  0.0000  0.0000  0.0000 </r>
       </set>
       <set comment="band 13">
        <r>  0.0000  0.0777  0.0000  0.0259  0.0000  0.0000  0.0000  0.0000  0.0000 </r>
        <r>  0.0000  0.0777  0.0000  0.0259  0.0000  0.0000  0.0000  0.0000  0.0000 </r>
        <r>  0.0000  0.0777  0.0000  0.0259  0.0000  0.0000  0.0000  0.0000  0.0000 </r>
        <r>  0.0000  0.0777  0.0000  0.0259  0.0000  0.0000  0.0000  0.0000  0.0000 </r>
        <r>  0.0000  0.0777  0.0000  0.0259  0.0000  0.0000  0.0000  0.0000  0.0000 </r>
        <r>  0.0000  0.0777  0.0000  0.0259  0.0000  0.0000  0.0000  0.0000  0.0000 </r>
        <r>  0.0000  0.0777  0.0000  0.0259  0.0000  0.0000  0.0000  0.0000  0.0000 </r>
        <r>  0.0000  0.0777  0.0000  0.0259  0.0000  0.0000  0.0000  0.0000  0.0000 </r>
       </set>
       <set comment="band 14">
        <r>  0.0000  0.0000  0.0000  0.0000  0.0000  0.0000  0.0000  0.0000  0.0000 </r>
        <r>  0.0000  0.0000  0.1297  0.0000  0.0000  0.0000  0.0000  0.0000  0.0000 </r>
        <r>  0.0000  0.0000  0.1377  0.0000  0.0000  0.0000  0.0000  0.0000  0.0000 </r>
        <r>  0.0000  0.0000  0.0000  0.0000  0.0000  0.0000  0.0000  0.0000  0.0000 </r>
        <r>  0.0000  0.0000  0.1297  0.0000  0.0000  0.0000  0.0000  0.0000  0.0000 </r>
        <r>  0.0000  0.0000  0.0000  0.0000  0.0000  0.0000  0.0000  0.0000  0.0000 </r>
        <r>  0.0000  0.0000  0.0000  0.0000  0.0000  0.0000  0.0000  0.0000  0.0000 </r>
        <r>  0.0000  0.0000  0.1377  0.0000  0.0000  0.0000  0.0000  0.0000  0.0000 </r>
       </set>
       <set comment="band 15">
        <r>  0.0000  0.0000  0.1337  0.0000  0.0000  0.0000  0.0000  0.0000  0.0000 </r>
        <r>  0.0000  0.0000  0.0000  0.0000  0.0000  0.0000  0.0000  0.0000  0.0000 </r>
        <r>  0.0000  0.0000  0.0000  0.0000  0.0000  0.0000  0.0000  0.0000  0.0000 </r>
        <r>  0.0000  0.0000  0.1338  0.0000  0.0000  0.0000  0.0000  0.0000  0.0000 </r>
        <r>  0.0000  0.0000  0.0000  0.0000  0.0000  0.0000  0.0000  0.0000  0.0000 </r>
        <r>  0.0000  0.0000  0.1337  0.0000  0.0000  0.0000  0.0000  0.0000  0.0000 </r>
        <r>  0.0000  0.0000  0.1338  0.0000  0.0000  0.0000  0.0000  0.0000  0.0000 </r>
        <r>  0.0000  0.0000  0.0000  0.0000  0.0000  0.0000  0.0000  0.0000  0.0000 </r>
       </set>
       <set comment="band 16">
        <r>  0.0000  0.0000  0.0668  0.0000  0.0000  0.0000  0.0000  0.0000  0.0000 </r>
        <r>  0.0000  0.0000  0.0709  0.0000  0.0000  0.0000  0.0000  0.0000  0.0000 </r>
        <r>  0.0000  0.0000  0.0629  0.0000  0.0000  0.0000  0.0000  0.0000  0.0000 </r>
        <r>  0.0000  0.0000  0.0669  0.0000  0.0000  0.0000  0.0000  0.0000  0.0000 </r>
        <r>  0.0000  0.0000  0.0709  0.0000  0.0000  0.0000  0.0000  0.0000  0.0000 </r>
        <r>  0.0000  0.0000  0.0669  0.0000  0.0000  0.0000  0.0000  0.0000  0.0000 </r>
        <r>  0.0000  0.0000  0.0668  0.0000  0.0000  0.0000  0.0000  0.0000  0.0000 </r>
        <r>  0.0000  0.0000  0.0629  0.0000  0.0000  0.0000  0.0000  0.0000  0.0000 </r>
       </set>
       <set comment="band 17">
        <r>  0.0000  0.0000  0.0608  0.0000  0.0000  0.0000  0.0000  0.0000  0.0000 </r>
        <r>  0.0000  0.0000  0.0610  0.0000  0.0000  0.0000  0.0000  0.0000  0.0000 </r>
        <r>  0.0000  0.0000  0.0606  0.0000  0.0000  0.0000  0.0000  0.0000  0.0000 </r>
        <r>  0.0000  0.0000  0.0608  0.0000  0.0000  0.0000  0.0000  0.0000  0.0000 </r>
        <r>  0.0000  0.0000  0.0610  0.0000  0.0000  0.0000  0.0000  0.0000  0.0000 </r>
        <r>  0.0000  0.0000  0.0608  0.0000  0.0000  0.0000  0.0000  0.0000  0.0000 </r>
        <r>  0.0000  0.0000  0.0608  0.0000  0.0000  0.0000  0.0000  0.0000  0.0000 </r>
        <r>  0.0000  0.0000  0.0606  0.0000  0.0000  0.0000  0.0000  0.0000  0.0000 </r>
       </set>
       <set comment="band 18">
        <r>  0.0000  0.0000  0.0986  0.0000  0.0000  0.0000  0.0000  0.0000  0.0000 </r>
        <r>  0.0000  0.0000  0.0229  0.0000  0.0000  0.0000  0.0000  0.0000  0.0000 </r>
        <r>  0.0000  0.0000  0.0230  0.0000  0.0000  0.0000  0.0000  0.0000  0.0000 </r>
        <r>  0.0000  0.0000  0.0987  0.0000  0.0000  0.0000  0.0000  0.0000  0.0000 </r>
        <r>  0.0000  0.0000  0.0229  0.0000  0.0000  0.0000  0.0000  0.0000  0.0000 </r>
        <r>  0.0000  0.0000  0.0986  0.0000  0.0000  0.0000  0.0000  0.0000  0.0000 </r>
        <r>  0.0000  0.0000  0.0987  0.0000  0.0000  0.0000  0.0000  0.0000  0.0000 </r>
        <r>  0.0000  0.0000  0.0230  0.0000  0.0000  0.0000  0.0000  0.0000  0.0000 </r>
       </set>
       <set comment="band 19">
        <r>  0.0000  0.0000  0.0230  0.0000  0.0000  0.0000  0.0000  0.0000  0.0000 </r>
        <r>  0.0000  0.0000  0.0985  0.0000  0.0000  0.0000  0.0000  0.0000  0.0000 </r>
        <r>  0.0000  0.0000  0.0988  0.0000  0.0000  0.0000  0.0000  0.0000  0.0000 </r>
        <r>  0.0000  0.0000  0.0229  0.0000  0.0000  0.0000  0.0000  0.0000  0.0000 </r>
        <r>  0.0000  0.0000  0.0985  0.0000  0.0000  0.0000  0.0000  0.0000  0.0000 </r>
        <r>  0.0000  0.0000  0.0230  0.0000  0.0000  0.0000  0.0000  0.0000  0.0000 </r>
        <r>  0.0000  0.0000  0.0229  0.0000  0.0000  0.0000  0.0000  0.0000  0.0000 </r>
        <r>  0.0000  0.0000  0.0988  0.0000  0.0000  0.0000  0.0000  0.0000  0.0000 </r>
       </set>
       <set comment="band 20">
        <r>  0.0077  0.0000  0.0000  0.0000  0.0000  0.0000  0.0000  0.0000  0.0000 </r>
        <r>  0.0077  0.0000  0.0000  0.0000  0.0000  0.0000  0.0000  0.0000  0.0000 </r>
        <r>  0.0077  0.0000  0.0000  0.0000  0.0000  0.0000  0.0000  0.0000  0.0000 </r>
        <r>  0.0077  0.0000  0.0000  0.0000  0.0000  0.0000  0.0000  0.0000  0.0000 </r>
        <r>  0.0077  0.0000  0.0000  0.0000  0.0000  0.0000  0.0000  0.0000  0.0000 </r>
        <r>  0.0077  0.0000  0.0000  0.0000  0.0000  0.0000  0.0000  0.0000  0.0000 </r>
        <r>  0.0077  0.0000  0.0000  0.0000  0.0000  0.0000  0.0000  0.0000  0.0000 </r>
        <r>  0.0077  0.0000  0.0000  0.0000  0.0000  0.0000  0.0000  0.0000  0.0000 </r>
       </set>
       <set comment="band 21">
        <r>  0.0903  0.0006  0.0000  0.0043  0.0000  0.0000  0.0000  0.0000  0.0000 </r>
        <r>  0.0011  0.0099  0.0000  0.0043  0.0000  0.0000  0.0000  0.0000  0.0000 </r>
        <r>  0.0011  0.0099  0.0000  0.0043  0.0000  0.0000  0.0000  0.0000  0.0000 </r>
        <r>  0.0903  0.0006  0.0000  0.0043  0.0000  0.0000  0.0000  0.0000  0.0000 </r>
        <r>  0.0011  0.0099  0.0000  0.0043  0.0000  0.0000  0.0000  0.0000  0.0000 </r>
        <r>  0.0903  0.0006  0.0000  0.0043  0.0000  0.0000  0.0000  0.0000  0.0000 </r>
        <r>  0.0903  0.0006  0.0000  0.0043  0.0000  0.0000  0.0000  0.0000  0.0000 </r>
        <r>  0.0011  0.0099  0.0000  0.0043  0.0000  0.0000  0.0000  0.0000  0.0000 </r>
       </set>
       <set comment="band 22">
        <r>  0.0098  0.0101  0.0000  0.0035  0.0000  0.0000  0.0000  0.0000  0.0000 </r>
        <r>  0.0723  0.0027  0.0000  0.0045  0.0000  0.0000  0.0000  0.0000  0.0000 </r>
        <r>  0.0853  0.0019  0.0000  0.0039  0.0000  0.0000  0.0000  0.0000  0.0000 </r>
        <r>  0.0154  0.0089  0.0000  0.0040  0.0000  0.0000  0.0000  0.0000  0.0000 </r>
        <r>  0.0720  0.0024  0.0000  0.0041  0.0000  0.0000  0.0000  0.0000  0.0000 </r>
        <r>  0.0098  0.0092  0.0000  0.0038  0.0000  0.0000  0.0000  0.0000  0.0000 </r>
        <r>  0.0154  0.0080  0.0000  0.0046  0.0000  0.0000  0.0000  0.0000  0.0000 </r>
        <r>  0.0853  0.0015  0.0000  0.0035  0.0000  0.0000  0.0000  0.0000  0.0000 </r>
       </set>
       <set comment="band 23">
        <r>  0.0369  0.0046  0.0000  0.0061  0.0000  0.0000  0.0000  0.0000  0.0000 </r>
        <r>  0.0638  0.0021  0.0000  0.0059  0.0000  0.0000  0.0000  0.0000  0.0000 </r>
        <r>  0.0507  0.0028  0.0000  0.0066  0.0000  0.0000  0.0000  0.0000  0.0000 </r>
        <r>  0.0314  0.0056  0.0000  0.0057  0.0000  0.0000  0.0000  0.0000  0.0000 </r>
        <r>  0.0638  0.0017  0.0000  0.0057  0.0000  0.0000  0.0000  0.0000  0.0000 </r>
        <r>  0.0370  0.0037  0.0000  0.0067  0.0000  0.0000  0.0000  0.0000  0.0000 </r>
        <r>  0.0312  0.0050  0.0000  0.0058  0.0000  0.0000  0.0000  0.0000  0.0000 </r>
        <r>  0.0504  0.0026  0.0000  0.0061  0.0000  0.0000  0.0000  0.0000  0.0000 </r>
       </set>
       <set comment="band 24">
        <r>  0.0000  0.0315  0.0000  0.0338  0.0000  0.0000  0.0000  0.0000  0.0000 </r>
        <r>  0.0000  0.0313  0.0000  0.0338  0.0000  0.0000  0.0000  0.0000  0.0000 </r>
        <r>  0.0000  0.0316  0.0000  0.0337  0.0000  0.0000  0.0000  0.0000  0.0000 </r>
        <r>  0.0000  0.0313  0.0000  0.0337  0.0000  0.0000  0.0000  0.0000  0.0000 </r>
        <r>  0.0000  0.0313  0.0000  0.0337  0.0000  0.0000  0.0000  0.0000  0.0000 </r>
        <r>  0.0000  0.0316  0.0000  0.0338  0.0000  0.0000  0.0000  0.0000  0.0000 </r>
        <r>  0.0000  0.0312  0.0000  0.0337  0.0000  0.0000  0.0000  0.0000  0.0000 </r>
        <r>  0.0000  0.0315  0.0000  0.0336  0.0000  0.0000  0.0000  0.0000  0.0000 </r>
       </set>
      </set>
     </set>
    </set>
   </array>
  </projected>
 </calculation>
 <structure name="finalpos" >
  <crystal>
   <varray name="basis" >
    <v>       4.90416594      -0.00003262       0.00000000 </v>
    <v>      -2.45211122       4.24711598       0.00000000 </v>
    <v>       0.00000000       0.00000000       3.84274793 </v>
   </varray>
   <i name="volume">     80.03860417 </i>
   <varray name="rec_basis" >
    <v>       0.20390905       0.11772876       0.00000000 </v>
    <v>       0.00000157       0.23545480       0.00000000 </v>
    <v>       0.00000000       0.00000000       0.26023044 </v>
   </varray>
  </crystal>
  <varray name="positions" >
   <v>       0.99999710       0.00000290       0.07317000 </v>
   <v>       0.33333290       0.16666710       0.07317000 </v>
   <v>       0.49999710       0.00000290       0.07317000 </v>
   <v>       0.83333287       0.16666710       0.07317000 </v>
   <v>       0.99999710       0.50000290       0.07317000 </v>
   <v>       0.33333290       0.66666713       0.07317000 </v>
   <v>       0.49999710       0.50000290       0.07317000 </v>
   <v>       0.83333287       0.66666713       0.07317000 </v>
  </varray>
 </structure>
</modeling>
