<?xml version="1.0" encoding="ISO-8859-1"?>
<modeling>
 <generator>
  <i name="program" type="string">vasp </i>
  <i name="version" type="string">5.2.11  </i>
  <i name="subversion" type="string">25Nov10 complex  parallel </i>
  <i name="platform" type="string">LinuxIFC </i>
  <i name="date" type="string">2018 12 14 </i>
  <i name="time" type="string">16:32:48 </i>
 </generator>
 <incar>
  <i type="string" name="SYSTEM"> NAME</i>
  <i type="int" name="ISTART">     0</i>
  <i type="string" name="PREC">accurate</i>
  <i type="int" name="ICHARG">     2</i>
  <i type="int" name="NELM">   100</i>
  <i type="int" name="NELMDL">    -5</i>
  <i type="int" name="NELMIN">     5</i>
  <i type="int" name="IBRION">    -1</i>
  <i name="EDIFF">      0.00010000</i>
  <i type="int" name="NSW">     0</i>
  <i type="int" name="ISIF">     2</i>
  <i name="ENCUT">    500.00000000</i>
  <i type="int" name="ISMEAR">     0</i>
  <i name="SIGMA">      0.10000000</i>
  <i type="int" name="NELM">   100</i>
  <i type="logical" name="LPEAD"> F  </i>
  <i type="logical" name="LCALCPOL"> F  </i>
  <i type="logical" name="LCALCEPS"> F  </i>
  <v name="EFIELD_PEAD">      0.00000000      0.00000000      0.00000000</v>
  <i type="logical" name="LEFG"> F  </i>
  <i type="logical" name="LRHFATM"> F  </i>
  <i type="string" name="METAGGA">--</i>
  <i type="int" name="LMAXTAU">     0</i>
 </incar>
 <kpoints>
  <generation param="listgenerated">
   <i name="divisions" type="int">      10 </i>
   <v>       0.00000000       0.00000000       0.00000000 </v>
   <v>       0.00000000       0.50000000       0.00000000 </v>
   <v>       0.00000000       0.50000000       0.50000000 </v>
   <v>       0.00000000       0.00000000       0.50000000 </v>
   <v>       0.00000000       0.00000000       0.00000000 </v>
  </generation>
  <varray name="kpointlist" >
   <v>       0.00000000       0.00000000       0.00000000 </v>
   <v>       0.00000000       0.05555556       0.00000000 </v>
   <v>       0.00000000       0.11111111       0.00000000 </v>
   <v>       0.00000000       0.16666667       0.00000000 </v>
   <v>       0.00000000       0.22222222       0.00000000 </v>
   <v>       0.00000000       0.27777778       0.00000000 </v>
   <v>       0.00000000       0.33333333       0.00000000 </v>
   <v>       0.00000000       0.38888889       0.00000000 </v>
   <v>       0.00000000       0.44444444       0.00000000 </v>
   <v>       0.00000000       0.50000000       0.00000000 </v>
   <v>       0.00000000       0.50000000       0.00000000 </v>
   <v>       0.00000000       0.50000000       0.05555556 </v>
   <v>       0.00000000       0.50000000       0.11111111 </v>
   <v>       0.00000000       0.50000000       0.16666667 </v>
   <v>       0.00000000       0.50000000       0.22222222 </v>
   <v>       0.00000000       0.50000000       0.27777778 </v>
   <v>       0.00000000       0.50000000       0.33333333 </v>
   <v>       0.00000000       0.50000000       0.38888889 </v>
   <v>       0.00000000       0.50000000       0.44444444 </v>
   <v>       0.00000000       0.50000000       0.50000000 </v>
   <v>       0.00000000       0.50000000       0.50000000 </v>
   <v>       0.00000000       0.44444444       0.50000000 </v>
   <v>       0.00000000       0.38888889       0.50000000 </v>
   <v>       0.00000000       0.33333333       0.50000000 </v>
   <v>       0.00000000       0.27777778       0.50000000 </v>
   <v>       0.00000000       0.22222222       0.50000000 </v>
   <v>       0.00000000       0.16666667       0.50000000 </v>
   <v>       0.00000000       0.11111111       0.50000000 </v>
   <v>       0.00000000       0.05555556       0.50000000 </v>
   <v>       0.00000000       0.00000000       0.50000000 </v>
   <v>       0.00000000       0.00000000       0.50000000 </v>
   <v>       0.00000000       0.00000000       0.44444444 </v>
   <v>       0.00000000       0.00000000       0.38888889 </v>
   <v>       0.00000000       0.00000000       0.33333333 </v>
   <v>       0.00000000       0.00000000       0.27777778 </v>
   <v>       0.00000000       0.00000000       0.22222222 </v>
   <v>       0.00000000       0.00000000       0.16666667 </v>
   <v>       0.00000000       0.00000000       0.11111111 </v>
   <v>       0.00000000       0.00000000       0.05555556 </v>
   <v>       0.00000000       0.00000000       0.00000000 </v>
  </varray>
  <varray name="weights" >
   <v>       0.02500000 </v>
   <v>       0.02500000 </v>
   <v>       0.02500000 </v>
   <v>       0.02500000 </v>
   <v>       0.02500000 </v>
   <v>       0.02500000 </v>
   <v>       0.02500000 </v>
   <v>       0.02500000 </v>
   <v>       0.02500000 </v>
   <v>       0.02500000 </v>
   <v>       0.02500000 </v>
   <v>       0.02500000 </v>
   <v>       0.02500000 </v>
   <v>       0.02500000 </v>
   <v>       0.02500000 </v>
   <v>       0.02500000 </v>
   <v>       0.02500000 </v>
   <v>       0.02500000 </v>
   <v>       0.02500000 </v>
   <v>       0.02500000 </v>
   <v>       0.02500000 </v>
   <v>       0.02500000 </v>
   <v>       0.02500000 </v>
   <v>       0.02500000 </v>
   <v>       0.02500000 </v>
   <v>       0.02500000 </v>
   <v>       0.02500000 </v>
   <v>       0.02500000 </v>
   <v>       0.02500000 </v>
   <v>       0.02500000 </v>
   <v>       0.02500000 </v>
   <v>       0.02500000 </v>
   <v>       0.02500000 </v>
   <v>       0.02500000 </v>
   <v>       0.02500000 </v>
   <v>       0.02500000 </v>
   <v>       0.02500000 </v>
   <v>       0.02500000 </v>
   <v>       0.02500000 </v>
   <v>       0.02500000 </v>
  </varray>
 </kpoints>
 <parameters>
  <separator name="general" >
   <i type="string" name="SYSTEM">NAME</i>
   <i type="logical" name="LCOMPAT"> F  </i>
  </separator>
  <separator name="electronic" >
   <i type="string" name="PREC">accura</i>
   <i name="ENMAX">    500.00000000</i>
   <i name="ENAUG">    644.87300000</i>
   <i name="EDIFF">      0.00010000</i>
   <i type="int" name="IALGO">    38</i>
   <i type="int" name="IWAVPR">    10</i>
   <i type="int" name="NBANDS">    40</i>
   <i name="NELECT">     32.00000000</i>
   <i type="int" name="TURBO">     0</i>
   <i type="int" name="IRESTART">     0</i>
   <i type="int" name="NREBOOT">     0</i>
   <i type="int" name="NMIN">     0</i>
   <i name="EREF">      0.00000000</i>
   <separator name="electronic smearing" >
    <i type="int" name="ISMEAR">     0</i>
    <i name="SIGMA">      0.10000000</i>
    <i name="KSPACING">      0.50000000</i>
    <i type="logical" name="KGAMMA"> T  </i>
   </separator>
   <separator name="electronic projectors" >
    <i type="logical" name="LREAL"> F  </i>
    <v name="ROPT">      0.00000000</v>
    <i type="int" name="LMAXPAW">  -100</i>
    <i type="int" name="LMAXMIX">     2</i>
   </separator>
   <separator name="electronic startup" >
    <i type="int" name="ISTART">     0</i>
    <i type="int" name="ICHARG">     2</i>
    <i type="int" name="INIWAV">     1</i>
   </separator>
   <separator name="electronic spin" >
    <i type="int" name="ISPIN">     1</i>
    <i type="logical" name="LNONCOLLINEAR"> F  </i>
    <v name="MAGMOM">      1.00000000      1.00000000      1.00000000      1.00000000      1.00000000      1.00000000      1.00000000      1.00000000</v>
    <i name="NUPDOWN">     -1.00000000</i>
    <i type="logical" name="LSORBIT"> F  </i>
    <v name="SAXIS">      0.00000000      0.00000000      1.00000000</v>
    <i type="logical" name="LSPIRAL"> F  </i>
    <v name="QSPIRAL">      0.00000000      0.00000000      0.00000000</v>
    <i type="logical" name="LZEROZ"> F  </i>
   </separator>
   <separator name="electronic exchange-correlation" >
    <i type="logical" name="LASPH"> F  </i>
    <i type="logical" name="LMETAGGA"> F  </i>
   </separator>
   <separator name="electronic convergence" >
    <i type="int" name="NELM">   100</i>
    <i type="int" name="NELMDL">    -5</i>
    <i type="int" name="NELMIN">     5</i>
    <i name="ENINI">    500.00000000</i>
    <separator name="electronic convergence detail" >
     <i type="logical" name="LDIAG"> T  </i>
     <i type="logical" name="LSUBROT"> T  </i>
     <i name="WEIMIN">      0.00000000</i>
     <i name="EBREAK">      0.00000119</i>
     <i name="DEPER">      0.30000000</i>
     <i type="int" name="NRMM">     4</i>
     <i name="TIME">      0.40000000</i>
    </separator>
   </separator>
   <separator name="electronic mixer" >
    <i name="AMIX">      0.40000000</i>
    <i name="BMIX">      1.00000000</i>
    <i name="AMIN">      0.10000000</i>
    <i name="AMIX_MAG">      1.60000000</i>
    <i name="BMIX_MAG">      1.00000000</i>
    <separator name="electronic mixer details" >
     <i type="int" name="IMIX">     4</i>
     <i type="int" name="MAXMIX">   -45</i>
     <i name="WC">    100.00000000</i>
     <i type="int" name="INIMIX">     1</i>
     <i type="int" name="MIXPRE">     1</i>
     <i type="int" name="MREMOVE">     5</i>
    </separator>
   </separator>
   <separator name="electronic dipolcorrection" >
    <i type="logical" name="LDIPOL"> F  </i>
    <i type="logical" name="LMONO"> F  </i>
    <i type="int" name="IDIPOL">     0</i>
    <i name="EPSILON">      1.00000000</i>
    <v name="DIPOL">   -100.00000000   -100.00000000   -100.00000000</v>
    <i name="EFIELD">      0.00000000</i>
   </separator>
  </separator>
  <separator name="grids" >
   <i type="int" name="NGX">    36</i>
   <i type="int" name="NGY">    36</i>
   <i type="int" name="NGZ">    24</i>
   <i type="int" name="NGXF">    72</i>
   <i type="int" name="NGYF">    72</i>
   <i type="int" name="NGZF">    48</i>
   <i type="logical" name="ADDGRID"> F  </i>
  </separator>
  <separator name="ionic" >
   <i type="int" name="NSW">     0</i>
   <i type="int" name="IBRION">    -1</i>
   <i type="int" name="ISIF">     2</i>
   <i name="PSTRESS">      0.00000000</i>
   <i name="EDIFFG">      0.00100000</i>
   <i type="int" name="NFREE">     0</i>
   <i name="POTIM">      0.50000000</i>
   <i name="SMASS">     -3.00000000</i>
  </separator>
  <separator name="ionic md" >
   <i name="TEBEG">      0.00010000</i>
   <i name="TEEND">      0.00010000</i>
   <i type="int" name="NBLOCK">     1</i>
   <i type="int" name="KBLOCK">     1</i>
   <i type="int" name="NPACO">   256</i>
   <i name="APACO">     16.00000000</i>
  </separator>
  <separator name="symmetry" >
   <i type="int" name="ISYM">     2</i>
   <i name="SYMPREC">      0.00001000</i>
  </separator>
  <separator name="dos" >
   <i type="logical" name="LORBIT"> F  </i>
   <v name="RWIGS">     -1.00000000</v>
   <i type="int" name="NEDOS">   301</i>
   <i name="EMIN">     10.00000000</i>
   <i name="EMAX">    -10.00000000</i>
   <i name="EFERMI">      0.00000000</i>
  </separator>
  <separator name="writing" >
   <i type="int" name="NWRITE">     2</i>
   <i type="logical" name="LWAVE"> T  </i>
   <i type="logical" name="LCHARG"> T  </i>
   <i type="logical" name="LPARD"> F  </i>
   <i type="logical" name="LVTOT"> F  </i>
   <i type="logical" name="LVHAR"> F  </i>
   <i type="logical" name="LELF"> F  </i>
   <i type="logical" name="LOPTICS"> F  </i>
   <v name="STM">      0.00000000      0.00000000      0.00000000      0.00000000      0.00000000</v>
  </separator>
  <separator name="performance" >
   <i type="int" name="NPAR">    20</i>
   <i type="int" name="NSIM">     4</i>
   <i type="int" name="NBLK">    -1</i>
   <i type="logical" name="LPLANE"> T  </i>
   <i type="logical" name="LSCALAPACK"> F  </i>
   <i type="logical" name="LSCAAWARE"> F  </i>
   <i type="logical" name="LSCALU"> F  </i>
   <i type="logical" name="LASYNC"> F  </i>
   <i type="logical" name="LORBITALREAL"> F  </i>
  </separator>
  <separator name="miscellaneous" >
   <i type="int" name="IDIOT">     3</i>
   <i type="logical" name="LMUSIC"> F  </i>
   <v name="POMASS">     12.01100000</v>
   <v name="DARWINR">      0.00000000</v>
   <v name="DARWINV">      1.00000000</v>
   <i type="logical" name="LCORR"> T  </i>
  </separator>
  <i type="logical" name="GGA_COMPAT"> T  </i>
  <i type="logical" name="LBERRY"> F  </i>
  <i type="int" name="ICORELEVEL">     0</i>
  <i type="logical" name="LDAU"> F  </i>
  <i type="int" name="I_CONSTRAINED_M">     0</i>
  <separator name="electronic exchange-correlation" >
   <i type="string" name="GGA">--</i>
   <i type="int" name="VOSKOWN">     0</i>
   <i type="logical" name="LHFCALC"> F  </i>
   <i type="string" name="PRECFOCK"></i>
   <i type="logical" name="LHFONE"> F  </i>
   <i type="logical" name="LRHFCALC"> F  </i>
   <i type="logical" name="LTHOMAS"> F  </i>
   <i type="logical" name="LMODELHF"> F  </i>
   <i name="ENCUT4O">     -1.00000000</i>
   <i type="int" name="EXXOEP">     0</i>
   <i type="int" name="FOURORBIT">     0</i>
   <i name="AEXX">      0.00000000</i>
   <i name="HFALPHA">      0.00000000</i>
   <i name="ALDAX">      1.00000000</i>
   <i name="AGGAX">      1.00000000</i>
   <i name="ALDAC">      1.00000000</i>
   <i name="AGGAC">      1.00000000</i>
   <i type="int" name="NKREDX">     1</i>
   <i type="int" name="NKREDY">     1</i>
   <i type="int" name="NKREDZ">     1</i>
   <i type="logical" name="SHIFTRED"> F  </i>
   <i type="logical" name="ODDONLY"> F  </i>
   <i type="logical" name="EVENONLY"> F  </i>
   <i type="int" name="LMAXFOCK">     0</i>
   <i type="int" name="NMAXFOCKAE">     0</i>
   <i type="logical" name="LFOCKAEDFT"> F  </i>
   <i name="HFSCREEN">      0.00000000</i>
   <i name="HFSCREENC">      0.00000000</i>
  </separator>
  <separator name="model GW" >
   <i type="int" name="MODEL_GW">     0</i>
   <i name="MODEL_EPS0">      5.04986458</i>
   <i name="MODEL_ALPHA">      1.00000000</i>
  </separator>
  <separator name="linear response parameters" >
   <i type="logical" name="LEPSILON"> F  </i>
   <i type="logical" name="LRPA"> F  </i>
   <i type="logical" name="LNABLA"> F  </i>
   <i type="logical" name="LVEL"> F  </i>
   <i type="int" name="KINTER">     0</i>
   <i name="CSHIFT">      0.10000000</i>
   <i name="OMEGAMAX">     -1.00000000</i>
  </separator>
  <separator name="orbital magnetization" >
   <i type="logical" name="ORBITALMAG"> F  </i>
   <i type="logical" name="LMAGBLOCH"> F  </i>
   <i type="logical" name="LCHIMAG"> F  </i>
   <i type="logical" name="LGAUGE"> T  </i>
   <i type="int" name="MAGATOM">     0</i>
   <v name="MAGDIPOL">      0.00000000      0.00000000      0.00000000</v>
   <v name="AVECCONST">      0.00000000      0.00000000      0.00000000</v>
  </separator>
  <separator name="response functions" >
   <i type="logical" name="LRPA"> T  </i>
   <i type="logical" name="LTCTE"> F  </i>
   <i type="logical" name="LTETE"> F  </i>
   <i type="logical" name="L2ORDER"> F  </i>
   <i type="logical" name="LUSEW"> F  </i>
   <i name="ENCUTGW">     -2.00000000</i>
   <i name="ENCUTGWSOFT">     -2.00000000</i>
   <i name="ENCUTLF">     -1.00000000</i>
   <i type="int" name="LMAXMP2">    -1</i>
   <i name="SCISSOR">      0.00000000</i>
   <i type="int" name="NOMEGA">     0</i>
   <i type="int" name="NOMEGAR">     0</i>
   <i type="int" name="NBANDSGW">    -1</i>
   <i type="int" name="NBANDSO">    -1</i>
   <i type="int" name="NBANDSV">    -1</i>
   <i type="int" name="NELM">   100</i>
   <i type="int" name="DIM">     3</i>
   <i type="int" name="ANTIRES">     0</i>
   <i name="OMEGAMAX">    -30.00000000</i>
   <i name="OMEGATL">   -200.00000000</i>
   <i type="int" name="OMEGAGRID">     0</i>
   <i name="CSHIFT">     -0.10000000</i>
   <i type="logical" name="SELFENERGY"> F  </i>
   <i type="logical" name="LSPECTRAL"> F  </i>
   <i type="logical" name="ODDONLYGW"> F  </i>
   <i type="logical" name="EVENONLYGW"> F  </i>
   <i type="int" name="NKREDLFX">     1</i>
   <i type="int" name="NKREDLFY">     1</i>
   <i type="int" name="NKREDLFZ">     1</i>
   <i type="int" name="MAXMEM">  1800</i>
   <i type="int" name="TELESCOPE">     0</i>
  </separator>
 </parameters>
 <atominfo>
  <atoms>       8 </atoms>
  <types>       1 </types>
  <array name="atoms" >
   <dimension dim="1">ion</dimension>
   <field type="string">element</field>
   <field type="int">atomtype</field>
   <set>
    <rc><c>C </c><c>   1</c></rc>
    <rc><c>C </c><c>   1</c></rc>
    <rc><c>C </c><c>   1</c></rc>
    <rc><c>C </c><c>   1</c></rc>
    <rc><c>C </c><c>   1</c></rc>
    <rc><c>C </c><c>   1</c></rc>
    <rc><c>C </c><c>   1</c></rc>
    <rc><c>C </c><c>   1</c></rc>
   </set>
  </array>
  <array name="atomtypes" >
   <dimension dim="1">type</dimension>
   <field type="int">atomspertype</field>
   <field type="string">element</field>
   <field>mass</field>
   <field>valence</field>
   <field type="string">pseudopotential</field>
   <set>
    <rc><c>   8</c><c>C </c><c>     12.01100000</c><c>      4.00000000</c><c> PAW_PBE C 08Apr2002                    </c></rc>
   </set>
  </array>
 </atominfo>
 <structure name="initialpos" >
  <crystal>
   <varray name="basis" >
    <v>       4.91653297       0.01866697       0.00000000 </v>
    <v>      -2.44210041       4.26717593       0.00000000 </v>
    <v>       0.00000000       0.00000000       3.20240543 </v>
   </varray>
   <i name="volume">     67.33152776 </i>
   <varray name="rec_basis" >
    <v>       0.20295436       0.11615057       0.00000000 </v>
    <v>      -0.00088783       0.23383892       0.00000000 </v>
    <v>       0.00000000       0.00000000       0.31226527 </v>
   </varray>
  </crystal>
  <varray name="positions" >
   <v>       0.99953813       0.00046187       0.07317000 </v>
   <v>       0.33379187       0.16620813       0.07317000 </v>
   <v>       0.49953813       0.00046187       0.07317000 </v>
   <v>       0.83379185       0.16620813       0.07317000 </v>
   <v>       0.99953813       0.50046187       0.07317000 </v>
   <v>       0.33379187       0.66620815       0.07317000 </v>
   <v>       0.49953813       0.50046187       0.07317000 </v>
   <v>       0.83379185       0.66620815       0.07317000 </v>
  </varray>
 </structure>
 <calculation>
  <scstep>
   <time name="dav">    7.82   10.52</time>
   <time name="total">    7.87   10.57</time>
   <energy>
    <i name="alphaZ">     77.44856934 </i>
    <i name="ewald">   -976.82658119 </i>
    <i name="hartreedc">   -262.23397509 </i>
    <i name="XCdc">    111.01589398 </i>
    <i name="pawpsdc">    302.65154477 </i>
    <i name="pawaedc">   -311.85538214 </i>
    <i name="eentropy">     -0.00417866 </i>
    <i name="bandstr">    -78.84763622 </i>
    <i name="atom">   1177.18737338 </i>
    <i name="e_fr_energy">     38.53562816 </i>
    <i name="e_wo_entrp">     38.53980683 </i>
    <i name="e_0_energy">     38.53771750 </i>
   </energy>
  </scstep>
  <scstep>
   <time name="dav">    7.63    7.64</time>
   <time name="total">    7.64    7.65</time>
   <energy>
    <i name="e_fr_energy">    -72.48603032 </i>
    <i name="e_wo_entrp">    -72.48603032 </i>
    <i name="e_0_energy">    -72.48603032 </i>
   </energy>
  </scstep>
  <scstep>
   <time name="dav">    7.00    7.01</time>
   <time name="total">    7.01    7.02</time>
   <energy>
    <i name="e_fr_energy">    -75.70526974 </i>
    <i name="e_wo_entrp">    -75.70526974 </i>
    <i name="e_0_energy">    -75.70526974 </i>
   </energy>
  </scstep>
  <scstep>
   <time name="dav">    8.76    8.77</time>
   <time name="total">    8.77    8.78</time>
   <energy>
    <i name="e_fr_energy">    -75.71979128 </i>
    <i name="e_wo_entrp">    -75.71979128 </i>
    <i name="e_0_energy">    -75.71979128 </i>
   </energy>
  </scstep>
  <scstep>
   <time name="dav">    6.87    6.88</time>
   <time name="total">    7.02    7.03</time>
   <energy>
    <i name="e_fr_energy">    -75.71988560 </i>
    <i name="e_wo_entrp">    -75.71988560 </i>
    <i name="e_0_energy">    -75.71988560 </i>
   </energy>
  </scstep>
  <scstep>
   <time name="dav">    7.26    7.27</time>
   <time name="total">    7.47    7.48</time>
   <energy>
    <i name="e_fr_energy">    -71.72960268 </i>
    <i name="e_wo_entrp">    -71.72960268 </i>
    <i name="e_0_energy">    -71.72960268 </i>
   </energy>
  </scstep>
  <scstep>
   <time name="dav">    6.09    6.09</time>
   <time name="total">    6.27    6.27</time>
   <energy>
    <i name="e_fr_energy">    -70.45430754 </i>
    <i name="e_wo_entrp">    -70.45430754 </i>
    <i name="e_0_energy">    -70.45430754 </i>
   </energy>
  </scstep>
  <scstep>
   <time name="dav">    4.33    4.34</time>
   <time name="total">    4.49    4.50</time>
   <energy>
    <i name="e_fr_energy">    -70.48258770 </i>
    <i name="e_wo_entrp">    -70.48258770 </i>
    <i name="e_0_energy">    -70.48258770 </i>
   </energy>
  </scstep>
  <scstep>
   <time name="dav">    5.39    5.40</time>
   <time name="total">    5.52    5.54</time>
   <energy>
    <i name="e_fr_energy">    -70.48110455 </i>
    <i name="e_wo_entrp">    -70.48110455 </i>
    <i name="e_0_energy">    -70.48110455 </i>
   </energy>
  </scstep>
  <scstep>
   <time name="dav">    4.51    4.52</time>
   <time name="total">    4.68    4.69</time>
   <energy>
    <i name="e_fr_energy">    -70.48141942 </i>
    <i name="e_wo_entrp">    -70.48141942 </i>
    <i name="e_0_energy">    -70.48141942 </i>
   </energy>
  </scstep>
  <scstep>
   <time name="dav">    5.50    5.51</time>
   <time name="total">    5.56    5.57</time>
   <energy>
    <i name="alphaZ">     77.44856934 </i>
    <i name="ewald">   -976.82658119 </i>
    <i name="hartreedc">   -333.72326583 </i>
    <i name="XCdc">    115.83409759 </i>
    <i name="pawpsdc">    564.98761382 </i>
    <i name="pawaedc">   -575.45361202 </i>
    <i name="eentropy">     -0.00000000 </i>
    <i name="bandstr">   -119.93562323 </i>
    <i name="atom">   1177.18737338 </i>
    <i name="e_fr_energy">    -70.48142812 </i>
    <i name="e_wo_entrp">    -70.48142812 </i>
    <i name="e_0_energy">    -70.48142812 </i>
   </energy>
  </scstep>
  <v type="logical" name="LVDW"> F  </v>
  <structure>
   <crystal>
    <varray name="basis" >
     <v>       4.91653297       0.01866697       0.00000000 </v>
     <v>      -2.44210041       4.26717593       0.00000000 </v>
     <v>       0.00000000       0.00000000       3.20240543 </v>
    </varray>
    <i name="volume">     67.33152776 </i>
    <varray name="rec_basis" >
     <v>       0.20295436       0.11615057       0.00000000 </v>
     <v>      -0.00088783       0.23383892       0.00000000 </v>
     <v>       0.00000000       0.00000000       0.31226527 </v>
    </varray>
   </crystal>
   <varray name="positions" >
    <v>       0.99953813       0.00046187       0.07317000 </v>
    <v>       0.33379187       0.16620813       0.07317000 </v>
    <v>       0.49953813       0.00046187       0.07317000 </v>
    <v>       0.83379185       0.16620813       0.07317000 </v>
    <v>       0.99953813       0.50046187       0.07317000 </v>
    <v>       0.33379187       0.66620815       0.07317000 </v>
    <v>       0.49953813       0.50046187       0.07317000 </v>
    <v>       0.83379185       0.66620815       0.07317000 </v>
   </varray>
  </structure>
  <varray name="forces" >
   <v>       0.85250929      -0.49219647      -0.00000000 </v>
   <v>      -0.85250929       0.49219647       0.00000000 </v>
   <v>       0.85250929      -0.49219647      -0.00000000 </v>
   <v>      -0.85250929       0.49219647       0.00000000 </v>
   <v>       0.85250929      -0.49219647      -0.00000000 </v>
   <v>      -0.85250929       0.49219647       0.00000000 </v>
   <v>       0.85250929      -0.49219647      -0.00000000 </v>
   <v>      -0.85250929       0.49219647       0.00000000 </v>
  </varray>
  <varray name="stress" >
   <v>     143.76826838    -136.38085386      -0.00000000 </v>
   <v>    -136.38085386     -13.71077699       0.00000000 </v>
   <v>      -0.00000000       0.00000000     155.86508513 </v>
  </varray>
  <energy>
   <i name="e_fr_energy">    -70.48142812 </i>
   <i name="e_wo_entrp">    -70.48142812 </i>
   <i name="e_0_energy">     -0.00000000 </i>
  </energy>
  <time name="totalsc">   75.03   77.84</time>
  <eigenvalues>
   <array>
    <dimension dim="1">band</dimension>
    <dimension dim="2">kpoint</dimension>
    <dimension dim="3">spin</dimension>
    <field>eigene</field>
    <field>occ</field>
    <set>
     <set comment="spin 1">
      <set comment="kpoint 1">
       <r>  -14.4586    1.0000 </r>
       <r>   -9.2094    1.0000 </r>
       <r>   -9.2094    1.0000 </r>
       <r>   -8.9893    1.0000 </r>
       <r>   -8.1813    1.0000 </r>
       <r>   -8.0155    1.0000 </r>
       <r>   -8.0155    1.0000 </r>
       <r>   -1.1533    1.0000 </r>
       <r>   -1.0922    1.0000 </r>
       <r>   -1.0922    1.0000 </r>
       <r>   -1.0249    1.0000 </r>
       <r>    2.1918    1.0000 </r>
       <r>    2.4127    1.0000 </r>
       <r>    3.8096    1.0000 </r>
       <r>    3.8096    1.0000 </r>
       <r>    4.0323    1.0000 </r>
       <r>    8.0002    0.0000 </r>
       <r>    8.2150    0.0000 </r>
       <r>    8.2150    0.0000 </r>
       <r>    9.9213    0.0000 </r>
       <r>   12.2398    0.0000 </r>
       <r>   12.4902    0.0000 </r>
       <r>   12.4902    0.0000 </r>
       <r>   13.3076    0.0000 </r>
       <r>   13.8301    0.0000 </r>
       <r>   16.6180    0.0000 </r>
       <r>   16.6180    0.0000 </r>
       <r>   16.7701    0.0000 </r>
       <r>   16.9743    0.0000 </r>
       <r>   16.9743    0.0000 </r>
       <r>   16.9806    0.0000 </r>
       <r>   17.0792    0.0000 </r>
       <r>   17.5917    0.0000 </r>
       <r>   25.2791    0.0000 </r>
       <r>   25.2908    0.0000 </r>
       <r>   25.3076    0.0000 </r>
       <r>   25.3076    0.0000 </r>
       <r>   25.3182    0.0000 </r>
       <r>   25.3182    0.0000 </r>
       <r>   27.3036    0.0000 </r>
      </set>
      <set comment="kpoint 2">
       <r>  -14.4401    1.0000 </r>
       <r>   -9.4601    1.0000 </r>
       <r>   -9.2677    1.0000 </r>
       <r>   -9.0802    1.0000 </r>
       <r>   -8.0602    1.0000 </r>
       <r>   -7.9267    1.0000 </r>
       <r>   -7.7370    1.0000 </r>
       <r>   -1.2116    1.0000 </r>
       <r>   -1.1507    1.0000 </r>
       <r>   -1.0741    1.0000 </r>
       <r>   -1.0041    1.0000 </r>
       <r>    2.1406    1.0000 </r>
       <r>    2.3453    1.0000 </r>
       <r>    3.7134    1.0000 </r>
       <r>    3.8025    1.0000 </r>
       <r>    4.0203    1.0000 </r>
       <r>    8.0257    0.0000 </r>
       <r>    8.2358    0.0000 </r>
       <r>    8.3369    0.0000 </r>
       <r>    9.9425    0.0000 </r>
       <r>   12.3250    0.0000 </r>
       <r>   12.4991    0.0000 </r>
       <r>   12.5756    0.0000 </r>
       <r>   13.3380    0.0000 </r>
       <r>   13.8954    0.0000 </r>
       <r>   16.0939    0.0000 </r>
       <r>   16.4266    0.0000 </r>
       <r>   16.5249    0.0000 </r>
       <r>   17.0205    0.0000 </r>
       <r>   17.1875    0.0000 </r>
       <r>   17.2485    0.0000 </r>
       <r>   17.5090    0.0000 </r>
       <r>   17.6200    0.0000 </r>
       <r>   25.0912    0.0000 </r>
       <r>   25.1143    0.0000 </r>
       <r>   25.1764    0.0000 </r>
       <r>   25.2079    0.0000 </r>
       <r>   25.2263    0.0000 </r>
       <r>   25.3408    0.0000 </r>
       <r>   27.8387    0.0000 </r>
      </set>
      <set comment="kpoint 3">
       <r>  -14.3847    1.0000 </r>
       <r>   -9.9342    1.0000 </r>
       <r>   -9.4047    1.0000 </r>
       <r>   -9.2660    1.0000 </r>
       <r>   -7.7844    1.0000 </r>
       <r>   -7.6991    1.0000 </r>
       <r>   -7.1802    1.0000 </r>
       <r>   -1.3812    1.0000 </r>
       <r>   -1.3210    1.0000 </r>
       <r>   -1.0202    1.0000 </r>
       <r>   -0.9418    1.0000 </r>
       <r>    1.9701    1.0000 </r>
       <r>    2.1696    1.0000 </r>
       <r>    3.4534    1.0000 </r>
       <r>    3.7822    1.0000 </r>
       <r>    3.9863    1.0000 </r>
       <r>    8.0987    0.0000 </r>
       <r>    8.2955    0.0000 </r>
       <r>    8.6735    0.0000 </r>
       <r>   10.0062    0.0000 </r>
       <r>   12.5251    0.0000 </r>
       <r>   12.5747    0.0000 </r>
       <r>   12.8257    0.0000 </r>
       <r>   13.4100    0.0000 </r>
       <r>   14.0989    0.0000 </r>
       <r>   15.4475    0.0000 </r>
       <r>   16.1518    0.0000 </r>
       <r>   16.2281    0.0000 </r>
       <r>   16.8454    0.0000 </r>
       <r>   17.5228    0.0000 </r>
       <r>   17.6088    0.0000 </r>
       <r>   17.7081    0.0000 </r>
       <r>   18.1819    0.0000 </r>
       <r>   24.6045    0.0000 </r>
       <r>   24.6375    0.0000 </r>
       <r>   24.7727    0.0000 </r>
       <r>   24.9715    0.0000 </r>
       <r>   25.0028    0.0000 </r>
       <r>   25.4407    0.0000 </r>
       <r>   27.6247    0.0000 </r>
      </set>
      <set comment="kpoint 4">
       <r>  -14.2925    1.0000 </r>
       <r>  -10.4395    1.0000 </r>
       <r>   -9.5648    1.0000 </r>
       <r>   -9.4623    1.0000 </r>
       <r>   -7.4399    1.0000 </r>
       <r>   -7.3894    1.0000 </r>
       <r>   -6.5379    1.0000 </r>
       <r>   -1.6475    1.0000 </r>
       <r>   -1.5887    1.0000 </r>
       <r>   -0.9310    1.0000 </r>
       <r>   -0.8382    1.0000 </r>
       <r>    1.6428    1.0000 </r>
       <r>    1.9496    1.0000 </r>
       <r>    3.0883    1.0000 </r>
       <r>    3.7523    1.0000 </r>
       <r>    3.9354    1.0000 </r>
       <r>    8.2103    0.0000 </r>
       <r>    8.3869    0.0000 </r>
       <r>    9.1646    0.0000 </r>
       <r>   10.1128    0.0000 </r>
       <r>   12.5658    0.0000 </r>
       <r>   12.9728    0.0000 </r>
       <r>   13.2246    0.0000 </r>
       <r>   13.4853    0.0000 </r>
       <r>   14.4482    0.0000 </r>
       <r>   14.8245    0.0000 </r>
       <r>   15.8986    0.0000 </r>
       <r>   15.9618    0.0000 </r>
       <r>   16.5610    0.0000 </r>
       <r>   17.8600    0.0000 </r>
       <r>   17.8639    0.0000 </r>
       <r>   17.9649    0.0000 </r>
       <r>   18.8315    0.0000 </r>
       <r>   24.0067    0.0000 </r>
       <r>   24.0445    0.0000 </r>
       <r>   24.1593    0.0000 </r>
       <r>   24.6052    0.0000 </r>
       <r>   24.6923    0.0000 </r>
       <r>   25.6074    0.0000 </r>
       <r>   27.3428    0.0000 </r>
      </set>
      <set comment="kpoint 5">
       <r>  -14.1636    1.0000 </r>
       <r>  -10.9333    1.0000 </r>
       <r>   -9.7180    1.0000 </r>
       <r>   -9.6415    1.0000 </r>
       <r>   -7.0574    1.0000 </r>
       <r>   -7.0309    1.0000 </r>
       <r>   -5.8541    1.0000 </r>
       <r>   -1.9897    1.0000 </r>
       <r>   -1.9333    1.0000 </r>
       <r>   -0.8071    1.0000 </r>
       <r>   -0.6937    1.0000 </r>
       <r>    1.1769    1.0000 </r>
       <r>    1.7037    1.0000 </r>
       <r>    2.6701    1.0000 </r>
       <r>    3.7177    1.0000 </r>
       <r>    3.8748    1.0000 </r>
       <r>    8.3474    0.0000 </r>
       <r>    8.4988    0.0000 </r>
       <r>    9.7560    0.0000 </r>
       <r>   10.2626    0.0000 </r>
       <r>   12.6156    0.0000 </r>
       <r>   13.4950    0.0000 </r>
       <r>   13.5359    0.0000 </r>
       <r>   13.7481    0.0000 </r>
       <r>   14.2400    0.0000 </r>
       <r>   14.9346    0.0000 </r>
       <r>   15.6814    0.0000 </r>
       <r>   15.7342    0.0000 </r>
       <r>   16.1777    0.0000 </r>
       <r>   18.0932    0.0000 </r>
       <r>   18.1542    0.0000 </r>
       <r>   18.2789    0.0000 </r>
       <r>   19.4149    0.0000 </r>
       <r>   23.3954    0.0000 </r>
       <r>   23.4069    0.0000 </r>
       <r>   23.4441    0.0000 </r>
       <r>   24.1925    0.0000 </r>
       <r>   24.3221    0.0000 </r>
       <r>   25.8417    0.0000 </r>
       <r>   27.0750    0.0000 </r>
      </set>
      <set comment="kpoint 6">
       <r>  -13.9981    1.0000 </r>
       <r>  -11.4035    1.0000 </r>
       <r>   -9.8507    1.0000 </r>
       <r>   -9.7940    1.0000 </r>
       <r>   -6.6519    1.0000 </r>
       <r>   -6.6426    1.0000 </r>
       <r>   -5.1432    1.0000 </r>
       <r>   -2.3839    1.0000 </r>
       <r>   -2.3309    1.0000 </r>
       <r>   -0.6501    1.0000 </r>
       <r>   -0.5088    1.0000 </r>
       <r>    0.6118    1.0000 </r>
       <r>    1.4313    1.0000 </r>
       <r>    2.2329    1.0000 </r>
       <r>    3.6837    1.0000 </r>
       <r>    3.8115    1.0000 </r>
       <r>    8.4942    0.0000 </r>
       <r>    8.6175    0.0000 </r>
       <r>   10.4100    0.0000 </r>
       <r>   10.4556    0.0000 </r>
       <r>   12.6579    0.0000 </r>
       <r>   13.5479    0.0000 </r>
       <r>   13.7135    0.0000 </r>
       <r>   14.1111    0.0000 </r>
       <r>   14.3642    0.0000 </r>
       <r>   15.5102    0.0000 </r>
       <r>   15.5387    0.0000 </r>
       <r>   15.5529    0.0000 </r>
       <r>   15.7078    0.0000 </r>
       <r>   18.3473    0.0000 </r>
       <r>   18.3940    0.0000 </r>
       <r>   18.4959    0.0000 </r>
       <r>   19.8801    0.0000 </r>
       <r>   22.5346    0.0000 </r>
       <r>   22.8632    0.0000 </r>
       <r>   22.8960    0.0000 </r>
       <r>   23.8193    0.0000 </r>
       <r>   23.9698    0.0000 </r>
       <r>   26.1436    0.0000 </r>
       <r>   26.9053    0.0000 </r>
      </set>
      <set comment="kpoint 7">
       <r>  -13.7964    1.0000 </r>
       <r>  -11.8449    1.0000 </r>
       <r>   -9.9564    1.0000 </r>
       <r>   -9.9162    1.0000 </r>
       <r>   -6.2408    1.0000 </r>
       <r>   -6.2380    1.0000 </r>
       <r>   -4.4130    1.0000 </r>
       <r>   -2.8027    1.0000 </r>
       <r>   -2.7550    1.0000 </r>
       <r>   -0.4614    1.0000 </r>
       <r>   -0.2843    1.0000 </r>
       <r>   -0.0245    1.0000 </r>
       <r>    1.1413    1.0000 </r>
       <r>    1.7979    1.0000 </r>
       <r>    3.6553    1.0000 </r>
       <r>    3.7520    1.0000 </r>
       <r>    8.6346    0.0000 </r>
       <r>    8.7279    0.0000 </r>
       <r>   10.6915    0.0000 </r>
       <r>   11.1011    0.0000 </r>
       <r>   12.6298    0.0000 </r>
       <r>   13.3082    0.0000 </r>
       <r>   13.5198    0.0000 </r>
       <r>   14.7645    0.0000 </r>
       <r>   14.9931    0.0000 </r>
       <r>   15.1647    0.0000 </r>
       <r>   15.4385    0.0000 </r>
       <r>   15.4473    0.0000 </r>
       <r>   16.2409    0.0000 </r>
       <r>   18.3652    0.0000 </r>
       <r>   18.5410    0.0000 </r>
       <r>   18.7531    0.0000 </r>
       <r>   20.1687    0.0000 </r>
       <r>   21.6196    0.0000 </r>
       <r>   22.4101    0.0000 </r>
       <r>   22.4364    0.0000 </r>
       <r>   23.5836    0.0000 </r>
       <r>   23.7342    0.0000 </r>
       <r>   26.5152    0.0000 </r>
       <r>   26.5923    0.0000 </r>
      </set>
      <set comment="kpoint 8">
       <r>  -13.5585    1.0000 </r>
       <r>  -12.2552    1.0000 </r>
       <r>  -10.0320    1.0000 </r>
       <r>  -10.0061    1.0000 </r>
       <r>   -5.8506    1.0000 </r>
       <r>   -5.8403    1.0000 </r>
       <r>   -3.6698    1.0000 </r>
       <r>   -3.2104    1.0000 </r>
       <r>   -3.1709    1.0000 </r>
       <r>   -0.7110    1.0000 </r>
       <r>   -0.2436    1.0000 </r>
       <r>   -0.0214    1.0000 </r>
       <r>    0.8443    1.0000 </r>
       <r>    1.3781    1.0000 </r>
       <r>    3.6365    1.0000 </r>
       <r>    3.7013    1.0000 </r>
       <r>    8.7529    0.0000 </r>
       <r>    8.8155    0.0000 </r>
       <r>   10.9693    0.0000 </r>
       <r>   11.8109    0.0000 </r>
       <r>   12.3950    0.0000 </r>
       <r>   13.1591    0.0000 </r>
       <r>   13.4582    0.0000 </r>
       <r>   14.5619    0.0000 </r>
       <r>   15.1401    0.0000 </r>
       <r>   15.1749    0.0000 </r>
       <r>   15.7031    0.0000 </r>
       <r>   15.8959    0.0000 </r>
       <r>   17.0232    0.0000 </r>
       <r>   18.1493    0.0000 </r>
       <r>   18.3519    0.0000 </r>
       <r>   19.1473    0.0000 </r>
       <r>   20.2249    0.0000 </r>
       <r>   20.7014    0.0000 </r>
       <r>   22.0712    0.0000 </r>
       <r>   22.0893    0.0000 </r>
       <r>   23.5609    0.0000 </r>
       <r>   23.6973    0.0000 </r>
       <r>   25.8311    0.0000 </r>
       <r>   25.9302    0.0000 </r>
      </set>
      <set comment="kpoint 9">
       <r>  -13.2849    1.0000 </r>
       <r>  -12.6326    1.0000 </r>
       <r>  -10.0754    1.0000 </r>
       <r>  -10.0628    1.0000 </r>
       <r>   -5.5253    1.0000 </r>
       <r>   -5.5147    1.0000 </r>
       <r>   -3.5425    1.0000 </r>
       <r>   -3.5176    1.0000 </r>
       <r>   -2.9200    1.0000 </r>
       <r>   -1.4308    1.0000 </r>
       <r>    0.0004    1.0000 </r>
       <r>    0.2787    1.0000 </r>
       <r>    0.5501    1.0000 </r>
       <r>    0.9816    1.0000 </r>
       <r>    3.6305    1.0000 </r>
       <r>    3.6630    1.0000 </r>
       <r>    8.8362    0.0000 </r>
       <r>    8.8675    0.0000 </r>
       <r>   11.2874    0.0000 </r>
       <r>   12.0231    0.0000 </r>
       <r>   12.5248    0.0000 </r>
       <r>   13.1937    0.0000 </r>
       <r>   13.3738    0.0000 </r>
       <r>   13.9128    0.0000 </r>
       <r>   15.1389    0.0000 </r>
       <r>   15.1406    0.0000 </r>
       <r>   16.3843    0.0000 </r>
       <r>   16.6140    0.0000 </r>
       <r>   17.7053    0.0000 </r>
       <r>   17.8693    0.0000 </r>
       <r>   17.9269    0.0000 </r>
       <r>   19.5451    0.0000 </r>
       <r>   19.6723    0.0000 </r>
       <r>   20.1913    0.0000 </r>
       <r>   21.8629    0.0000 </r>
       <r>   21.8721    0.0000 </r>
       <r>   23.7421    0.0000 </r>
       <r>   23.8466    0.0000 </r>
       <r>   25.2066    0.0000 </r>
       <r>   25.2948    0.0000 </r>
      </set>
      <set comment="kpoint 10">
       <r>  -12.9760    1.0000 </r>
       <r>  -12.9760    1.0000 </r>
       <r>  -10.0859    1.0000 </r>
       <r>  -10.0859    1.0000 </r>
       <r>   -5.3804    1.0000 </r>
       <r>   -5.3804    1.0000 </r>
       <r>   -3.6747    1.0000 </r>
       <r>   -3.6747    1.0000 </r>
       <r>   -2.1707    1.0000 </r>
       <r>   -2.1707    1.0000 </r>
       <r>    0.2667    1.0000 </r>
       <r>    0.2667    1.0000 </r>
       <r>    0.6139    1.0000 </r>
       <r>    0.6139    1.0000 </r>
       <r>    3.6391    1.0000 </r>
       <r>    3.6391    1.0000 </r>
       <r>    8.8753    0.0000 </r>
       <r>    8.8753    0.0000 </r>
       <r>   11.6420    0.0000 </r>
       <r>   11.6420    0.0000 </r>
       <r>   13.2296    0.0000 </r>
       <r>   13.2297    0.0000 </r>
       <r>   13.2796    0.0000 </r>
       <r>   13.2796    0.0000 </r>
       <r>   15.1252    0.0000 </r>
       <r>   15.1252    0.0000 </r>
       <r>   17.0652    0.0000 </r>
       <r>   17.0652    0.0000 </r>
       <r>   17.3421    0.0000 </r>
       <r>   17.3421    0.0000 </r>
       <r>   18.7621    0.0000 </r>
       <r>   18.7621    0.0000 </r>
       <r>   19.9067    0.0000 </r>
       <r>   19.9067    0.0000 </r>
       <r>   21.7954    0.0000 </r>
       <r>   21.7954    0.0000 </r>
       <r>   23.9452    0.0000 </r>
       <r>   23.9452    0.0000 </r>
       <r>   24.9481    0.0000 </r>
       <r>   24.9481    0.0000 </r>
      </set>
      <set comment="kpoint 11">
       <r>  -12.9760    1.0000 </r>
       <r>  -12.9760    1.0000 </r>
       <r>  -10.0859    1.0000 </r>
       <r>  -10.0859    1.0000 </r>
       <r>   -5.3804    1.0000 </r>
       <r>   -5.3804    1.0000 </r>
       <r>   -3.6747    1.0000 </r>
       <r>   -3.6747    1.0000 </r>
       <r>   -2.1707    1.0000 </r>
       <r>   -2.1707    1.0000 </r>
       <r>    0.2667    1.0000 </r>
       <r>    0.2667    1.0000 </r>
       <r>    0.6139    1.0000 </r>
       <r>    0.6139    1.0000 </r>
       <r>    3.6391    1.0000 </r>
       <r>    3.6391    1.0000 </r>
       <r>    8.8753    0.0000 </r>
       <r>    8.8753    0.0000 </r>
       <r>   11.6420    0.0000 </r>
       <r>   11.6420    0.0000 </r>
       <r>   13.2296    0.0000 </r>
       <r>   13.2297    0.0000 </r>
       <r>   13.2796    0.0000 </r>
       <r>   13.2796    0.0000 </r>
       <r>   15.1252    0.0000 </r>
       <r>   15.1252    0.0000 </r>
       <r>   17.0652    0.0000 </r>
       <r>   17.0652    0.0000 </r>
       <r>   17.3421    0.0000 </r>
       <r>   17.3421    0.0000 </r>
       <r>   18.7621    0.0000 </r>
       <r>   18.7621    0.0000 </r>
       <r>   19.9067    0.0000 </r>
       <r>   19.9067    0.0000 </r>
       <r>   21.7954    0.0000 </r>
       <r>   21.7954    0.0000 </r>
       <r>   23.9452    0.0000 </r>
       <r>   23.9452    0.0000 </r>
       <r>   24.9481    0.0000 </r>
       <r>   24.9481    0.0000 </r>
      </set>
      <set comment="kpoint 12">
       <r>  -12.9649    1.0000 </r>
       <r>  -12.9649    1.0000 </r>
       <r>  -10.0763    1.0000 </r>
       <r>  -10.0763    1.0000 </r>
       <r>   -5.3738    1.0000 </r>
       <r>   -5.3738    1.0000 </r>
       <r>   -3.6696    1.0000 </r>
       <r>   -3.6696    1.0000 </r>
       <r>   -2.1659    1.0000 </r>
       <r>   -2.1659    1.0000 </r>
       <r>    0.2689    1.0000 </r>
       <r>    0.2690    1.0000 </r>
       <r>    0.5233    1.0000 </r>
       <r>    0.5233    1.0000 </r>
       <r>    3.5627    1.0000 </r>
       <r>    3.5627    1.0000 </r>
       <r>    8.8177    0.0000 </r>
       <r>    8.8177    0.0000 </r>
       <r>   11.8013    0.0000 </r>
       <r>   11.8013    0.0000 </r>
       <r>   13.1882    0.0000 </r>
       <r>   13.1882    0.0000 </r>
       <r>   13.2974    0.0000 </r>
       <r>   13.2974    0.0000 </r>
       <r>   15.2511    0.0000 </r>
       <r>   15.2511    0.0000 </r>
       <r>   17.0613    0.0000 </r>
       <r>   17.0613    0.0000 </r>
       <r>   17.3793    0.0000 </r>
       <r>   17.3793    0.0000 </r>
       <r>   18.7663    0.0000 </r>
       <r>   18.7663    0.0000 </r>
       <r>   19.9459    0.0000 </r>
       <r>   19.9459    0.0000 </r>
       <r>   21.5728    0.0000 </r>
       <r>   21.5728    0.0000 </r>
       <r>   24.0214    0.0000 </r>
       <r>   24.0214    0.0000 </r>
       <r>   25.2617    0.0000 </r>
       <r>   25.2617    0.0000 </r>
      </set>
      <set comment="kpoint 13">
       <r>  -12.9325    1.0000 </r>
       <r>  -12.9325    1.0000 </r>
       <r>  -10.0487    1.0000 </r>
       <r>  -10.0487    1.0000 </r>
       <r>   -5.3547    1.0000 </r>
       <r>   -5.3547    1.0000 </r>
       <r>   -3.6549    1.0000 </r>
       <r>   -3.6549    1.0000 </r>
       <r>   -2.1519    1.0000 </r>
       <r>   -2.1519    1.0000 </r>
       <r>    0.2650    1.0000 </r>
       <r>    0.2650    1.0000 </r>
       <r>    0.2831    1.0000 </r>
       <r>    0.2831    1.0000 </r>
       <r>    3.3495    1.0000 </r>
       <r>    3.3495    1.0000 </r>
       <r>    8.6561    0.0000 </r>
       <r>    8.6561    0.0000 </r>
       <r>   12.2340    0.0000 </r>
       <r>   12.2340    0.0000 </r>
       <r>   13.0905    0.0000 </r>
       <r>   13.0905    0.0000 </r>
       <r>   13.3538    0.0000 </r>
       <r>   13.3538    0.0000 </r>
       <r>   15.5906    0.0000 </r>
       <r>   15.5906    0.0000 </r>
       <r>   17.0422    0.0000 </r>
       <r>   17.0422    0.0000 </r>
       <r>   17.4944    0.0000 </r>
       <r>   17.4944    0.0000 </r>
       <r>   18.7783    0.0000 </r>
       <r>   18.7783    0.0000 </r>
       <r>   20.0568    0.0000 </r>
       <r>   20.0568    0.0000 </r>
       <r>   21.1269    0.0000 </r>
       <r>   21.1269    0.0000 </r>
       <r>   24.2435    0.0000 </r>
       <r>   24.2435    0.0000 </r>
       <r>   25.9655    0.0000 </r>
       <r>   25.9655    0.0000 </r>
      </set>
      <set comment="kpoint 14">
       <r>  -12.8820    1.0000 </r>
       <r>  -12.8820    1.0000 </r>
       <r>  -10.0058    1.0000 </r>
       <r>  -10.0058    1.0000 </r>
       <r>   -5.3251    1.0000 </r>
       <r>   -5.3251    1.0000 </r>
       <r>   -3.6322    1.0000 </r>
       <r>   -3.6322    1.0000 </r>
       <r>   -2.1303    1.0000 </r>
       <r>   -2.1303    1.0000 </r>
       <r>   -0.0878    1.0000 </r>
       <r>   -0.0878    1.0000 </r>
       <r>    0.2867    1.0000 </r>
       <r>    0.2867    1.0000 </r>
       <r>    3.0405    1.0000 </r>
       <r>    3.0405    1.0000 </r>
       <r>    8.4198    0.0000 </r>
       <r>    8.4198    0.0000 </r>
       <r>   12.6448    0.0000 </r>
       <r>   12.6448    0.0000 </r>
       <r>   13.1081    0.0000 </r>
       <r>   13.1081    0.0000 </r>
       <r>   13.5333    0.0000 </r>
       <r>   13.5333    0.0000 </r>
       <r>   16.0026    0.0000 </r>
       <r>   16.0026    0.0000 </r>
       <r>   17.0560    0.0000 </r>
       <r>   17.0560    0.0000 </r>
       <r>   17.6714    0.0000 </r>
       <r>   17.6714    0.0000 </r>
       <r>   18.7968    0.0000 </r>
       <r>   18.7968    0.0000 </r>
       <r>   20.2200    0.0000 </r>
       <r>   20.2200    0.0000 </r>
       <r>   20.7485    0.0000 </r>
       <r>   20.7485    0.0000 </r>
       <r>   24.6017    0.0000 </r>
       <r>   24.6017    0.0000 </r>
       <r>   26.0569    0.0000 </r>
       <r>   26.0569    0.0000 </r>
      </set>
      <set comment="kpoint 15">
       <r>  -12.8185    1.0000 </r>
       <r>  -12.8185    1.0000 </r>
       <r>   -9.9521    1.0000 </r>
       <r>   -9.9521    1.0000 </r>
       <r>   -5.2883    1.0000 </r>
       <r>   -5.2883    1.0000 </r>
       <r>   -3.6041    1.0000 </r>
       <r>   -3.6041    1.0000 </r>
       <r>   -2.1035    1.0000 </r>
       <r>   -2.1035    1.0000 </r>
       <r>   -0.4962    1.0000 </r>
       <r>   -0.4962    1.0000 </r>
       <r>    0.2995    1.0000 </r>
       <r>    0.2995    1.0000 </r>
       <r>    2.6856    1.0000 </r>
       <r>    2.6856    1.0000 </r>
       <r>    8.1459    0.0000 </r>
       <r>    8.1459    0.0000 </r>
       <r>   12.5594    0.0000 </r>
       <r>   12.5594    0.0000 </r>
       <r>   13.3086    0.0000 </r>
       <r>   13.3086    0.0000 </r>
       <r>   14.1921    0.0000 </r>
       <r>   14.1921    0.0000 </r>
       <r>   16.1902    0.0000 </r>
       <r>   16.1902    0.0000 </r>
       <r>   17.2793    0.0000 </r>
       <r>   17.2793    0.0000 </r>
       <r>   17.8761    0.0000 </r>
       <r>   17.8761    0.0000 </r>
       <r>   18.8201    0.0000 </r>
       <r>   18.8201    0.0000 </r>
       <r>   20.4111    0.0000 </r>
       <r>   20.4111    0.0000 </r>
       <r>   20.6151    0.0000 </r>
       <r>   20.6151    0.0000 </r>
       <r>   25.0780    0.0000 </r>
       <r>   25.0780    0.0000 </r>
       <r>   25.5219    0.0000 </r>
       <r>   25.5219    0.0000 </r>
      </set>
      <set comment="kpoint 16">
       <r>  -12.7491    1.0000 </r>
       <r>  -12.7491    1.0000 </r>
       <r>   -9.8937    1.0000 </r>
       <r>   -9.8937    1.0000 </r>
       <r>   -5.2486    1.0000 </r>
       <r>   -5.2486    1.0000 </r>
       <r>   -3.5738    1.0000 </r>
       <r>   -3.5738    1.0000 </r>
       <r>   -2.0747    1.0000 </r>
       <r>   -2.0747    1.0000 </r>
       <r>   -0.8999    1.0000 </r>
       <r>   -0.8999    1.0000 </r>
       <r>    0.3132    1.0000 </r>
       <r>    0.3132    1.0000 </r>
       <r>    2.3315    1.0000 </r>
       <r>    2.3315    1.0000 </r>
       <r>    7.8705    0.0000 </r>
       <r>    7.8705    0.0000 </r>
       <r>   12.3624    0.0000 </r>
       <r>   12.3624    0.0000 </r>
       <r>   13.4103    0.0000 </r>
       <r>   13.4103    0.0000 </r>
       <r>   15.1661    0.0000 </r>
       <r>   15.1661    0.0000 </r>
       <r>   16.0851    0.0000 </r>
       <r>   16.0851    0.0000 </r>
       <r>   17.6439    0.0000 </r>
       <r>   17.6439    0.0000 </r>
       <r>   18.0804    0.0000 </r>
       <r>   18.0804    0.0000 </r>
       <r>   18.8443    0.0000 </r>
       <r>   18.8443    0.0000 </r>
       <r>   20.6056    0.0000 </r>
       <r>   20.6056    0.0000 </r>
       <r>   20.8515    0.0000 </r>
       <r>   20.8515    0.0000 </r>
       <r>   25.1062    0.0000 </r>
       <r>   25.1062    0.0000 </r>
       <r>   25.6412    0.0000 </r>
       <r>   25.6412    0.0000 </r>
      </set>
      <set comment="kpoint 17">
       <r>  -12.6819    1.0000 </r>
       <r>  -12.6819    1.0000 </r>
       <r>   -9.8374    1.0000 </r>
       <r>   -9.8374    1.0000 </r>
       <r>   -5.2107    1.0000 </r>
       <r>   -5.2107    1.0000 </r>
       <r>   -3.5450    1.0000 </r>
       <r>   -3.5450    1.0000 </r>
       <r>   -2.0473    1.0000 </r>
       <r>   -2.0473    1.0000 </r>
       <r>   -1.2564    1.0000 </r>
       <r>   -1.2563    1.0000 </r>
       <r>    0.3262    1.0000 </r>
       <r>    0.3262    1.0000 </r>
       <r>    2.0168    1.0000 </r>
       <r>    2.0168    1.0000 </r>
       <r>    7.6248    0.0000 </r>
       <r>    7.6248    0.0000 </r>
       <r>   12.1733    0.0000 </r>
       <r>   12.1733    0.0000 </r>
       <r>   13.4852    0.0000 </r>
       <r>   13.4852    0.0000 </r>
       <r>   15.8849    0.0000 </r>
       <r>   15.8849    0.0000 </r>
       <r>   16.1856    0.0000 </r>
       <r>   16.1856    0.0000 </r>
       <r>   17.8997    0.0000 </r>
       <r>   17.8997    0.0000 </r>
       <r>   18.2560    0.0000 </r>
       <r>   18.2560    0.0000 </r>
       <r>   18.8673    0.0000 </r>
       <r>   18.8673    0.0000 </r>
       <r>   20.7834    0.0000 </r>
       <r>   20.7834    0.0000 </r>
       <r>   21.4800    0.0000 </r>
       <r>   21.4800    0.0000 </r>
       <r>   24.8573    0.0000 </r>
       <r>   24.8573    0.0000 </r>
       <r>   26.2481    0.0000 </r>
       <r>   26.2481    0.0000 </r>
      </set>
      <set comment="kpoint 18">
       <r>  -12.6257    1.0000 </r>
       <r>  -12.6257    1.0000 </r>
       <r>   -9.7905    1.0000 </r>
       <r>   -9.7905    1.0000 </r>
       <r>   -5.1793    1.0000 </r>
       <r>   -5.1793    1.0000 </r>
       <r>   -3.5213    1.0000 </r>
       <r>   -3.5213    1.0000 </r>
       <r>   -2.0247    1.0000 </r>
       <r>   -2.0247    1.0000 </r>
       <r>   -1.5336    1.0000 </r>
       <r>   -1.5336    1.0000 </r>
       <r>    0.3368    1.0000 </r>
       <r>    0.3368    1.0000 </r>
       <r>    1.7712    1.0000 </r>
       <r>    1.7712    1.0000 </r>
       <r>    7.4323    0.0000 </r>
       <r>    7.4323    0.0000 </r>
       <r>   12.0221    0.0000 </r>
       <r>   12.0221    0.0000 </r>
       <r>   13.5430    0.0000 </r>
       <r>   13.5430    0.0000 </r>
       <r>   15.6954    0.0000 </r>
       <r>   15.6954    0.0000 </r>
       <r>   17.0989    0.0000 </r>
       <r>   17.0989    0.0000 </r>
       <r>   18.0317    0.0000 </r>
       <r>   18.0317    0.0000 </r>
       <r>   18.3780    0.0000 </r>
       <r>   18.3780    0.0000 </r>
       <r>   18.8863    0.0000 </r>
       <r>   18.8863    0.0000 </r>
       <r>   20.9274    0.0000 </r>
       <r>   20.9274    0.0000 </r>
       <r>   22.3548    0.0000 </r>
       <r>   22.3549    0.0000 </r>
       <r>   24.8368    0.0000 </r>
       <r>   24.8368    0.0000 </r>
       <r>   26.8313    0.0000 </r>
       <r>   26.8313    0.0000 </r>
      </set>
      <set comment="kpoint 19">
       <r>  -12.5882    1.0000 </r>
       <r>  -12.5882    1.0000 </r>
       <r>   -9.7594    1.0000 </r>
       <r>   -9.7594    1.0000 </r>
       <r>   -5.1587    1.0000 </r>
       <r>   -5.1586    1.0000 </r>
       <r>   -3.5057    1.0000 </r>
       <r>   -3.5057    1.0000 </r>
       <r>   -2.0097    1.0000 </r>
       <r>   -2.0097    1.0000 </r>
       <r>   -1.7092    1.0000 </r>
       <r>   -1.7092    1.0000 </r>
       <r>    0.3437    1.0000 </r>
       <r>    0.3437    1.0000 </r>
       <r>    1.6154    1.0000 </r>
       <r>    1.6154    1.0000 </r>
       <r>    7.3099    0.0000 </r>
       <r>    7.3100    0.0000 </r>
       <r>   11.9248    0.0000 </r>
       <r>   11.9248    0.0000 </r>
       <r>   13.5803    0.0000 </r>
       <r>   13.5803    0.0000 </r>
       <r>   15.5658    0.0000 </r>
       <r>   15.5658    0.0000 </r>
       <r>   17.7454    0.0000 </r>
       <r>   17.7454    0.0000 </r>
       <r>   18.0921    0.0000 </r>
       <r>   18.0921    0.0000 </r>
       <r>   18.4476    0.0000 </r>
       <r>   18.4476    0.0000 </r>
       <r>   18.8989    0.0000 </r>
       <r>   18.8989    0.0000 </r>
       <r>   21.0218    0.0000 </r>
       <r>   21.0218    0.0000 </r>
       <r>   23.2240    0.0000 </r>
       <r>   23.2240    0.0000 </r>
       <r>   25.0839    0.0000 </r>
       <r>   25.0839    0.0000 </r>
       <r>   26.5257    0.0000 </r>
       <r>   26.5257    0.0000 </r>
      </set>
      <set comment="kpoint 20">
       <r>  -12.5751    1.0000 </r>
       <r>  -12.5751    1.0000 </r>
       <r>   -9.7485    1.0000 </r>
       <r>   -9.7485    1.0000 </r>
       <r>   -5.1514    1.0000 </r>
       <r>   -5.1514    1.0000 </r>
       <r>   -3.5002    1.0000 </r>
       <r>   -3.5002    1.0000 </r>
       <r>   -2.0043    1.0000 </r>
       <r>   -2.0043    1.0000 </r>
       <r>   -1.7693    1.0000 </r>
       <r>   -1.7693    1.0000 </r>
       <r>    0.3461    1.0000 </r>
       <r>    0.3461    1.0000 </r>
       <r>    1.5620    1.0000 </r>
       <r>    1.5620    1.0000 </r>
       <r>    7.2682    0.0000 </r>
       <r>    7.2682    0.0000 </r>
       <r>   11.8913    0.0000 </r>
       <r>   11.8913    0.0000 </r>
       <r>   13.5933    0.0000 </r>
       <r>   13.5933    0.0000 </r>
       <r>   15.5202    0.0000 </r>
       <r>   15.5202    0.0000 </r>
       <r>   17.9805    0.0000 </r>
       <r>   17.9806    0.0000 </r>
       <r>   18.1098    0.0000 </r>
       <r>   18.1098    0.0000 </r>
       <r>   18.4705    0.0000 </r>
       <r>   18.4705    0.0000 </r>
       <r>   18.9034    0.0000 </r>
       <r>   18.9034    0.0000 </r>
       <r>   21.0549    0.0000 </r>
       <r>   21.0549    0.0000 </r>
       <r>   23.6503    0.0000 </r>
       <r>   23.6503    0.0000 </r>
       <r>   25.3579    0.0000 </r>
       <r>   25.3579    0.0000 </r>
       <r>   26.2260    0.0000 </r>
       <r>   26.2260    0.0000 </r>
      </set>
      <set comment="kpoint 21">
       <r>  -12.5751    1.0000 </r>
       <r>  -12.5751    1.0000 </r>
       <r>   -9.7485    1.0000 </r>
       <r>   -9.7485    1.0000 </r>
       <r>   -5.1514    1.0000 </r>
       <r>   -5.1514    1.0000 </r>
       <r>   -3.5002    1.0000 </r>
       <r>   -3.5002    1.0000 </r>
       <r>   -2.0043    1.0000 </r>
       <r>   -2.0043    1.0000 </r>
       <r>   -1.7693    1.0000 </r>
       <r>   -1.7693    1.0000 </r>
       <r>    0.3461    1.0000 </r>
       <r>    0.3461    1.0000 </r>
       <r>    1.5620    1.0000 </r>
       <r>    1.5620    1.0000 </r>
       <r>    7.2682    0.0000 </r>
       <r>    7.2682    0.0000 </r>
       <r>   11.8913    0.0000 </r>
       <r>   11.8913    0.0000 </r>
       <r>   13.5933    0.0000 </r>
       <r>   13.5933    0.0000 </r>
       <r>   15.5202    0.0000 </r>
       <r>   15.5202    0.0000 </r>
       <r>   17.9805    0.0000 </r>
       <r>   17.9806    0.0000 </r>
       <r>   18.1098    0.0000 </r>
       <r>   18.1098    0.0000 </r>
       <r>   18.4705    0.0000 </r>
       <r>   18.4705    0.0000 </r>
       <r>   18.9034    0.0000 </r>
       <r>   18.9034    0.0000 </r>
       <r>   21.0549    0.0000 </r>
       <r>   21.0549    0.0000 </r>
       <r>   23.6503    0.0000 </r>
       <r>   23.6503    0.0000 </r>
       <r>   25.3579    0.0000 </r>
       <r>   25.3579    0.0000 </r>
       <r>   26.2260    0.0000 </r>
       <r>   26.2260    0.0000 </r>
      </set>
      <set comment="kpoint 22">
       <r>  -12.8769    1.0000 </r>
       <r>  -12.2393    1.0000 </r>
       <r>   -9.7381    1.0000 </r>
       <r>   -9.7259    1.0000 </r>
       <r>   -5.2930    1.0000 </r>
       <r>   -5.2839    1.0000 </r>
       <r>   -3.3706    1.0000 </r>
       <r>   -3.3473    1.0000 </r>
       <r>   -2.7379    1.0000 </r>
       <r>   -2.1342    1.0000 </r>
       <r>   -1.3669    1.0000 </r>
       <r>   -1.2802    1.0000 </r>
       <r>    0.0816    1.0000 </r>
       <r>    0.6275    1.0000 </r>
       <r>    1.5600    1.0000 </r>
       <r>    1.5870    1.0000 </r>
       <r>    7.2153    0.0000 </r>
       <r>    7.2275    0.0000 </r>
       <r>   11.0639    0.0000 </r>
       <r>   12.6962    0.0000 </r>
       <r>   13.5062    0.0000 </r>
       <r>   13.6707    0.0000 </r>
       <r>   15.5936    0.0000 </r>
       <r>   15.6153    0.0000 </r>
       <r>   17.2245    0.0000 </r>
       <r>   17.4937    0.0000 </r>
       <r>   17.8114    0.0000 </r>
       <r>   18.0107    0.0000 </r>
       <r>   18.1470    0.0000 </r>
       <r>   19.0993    0.0000 </r>
       <r>   19.3827    0.0000 </r>
       <r>   19.8291    0.0000 </r>
       <r>   20.4849    0.0000 </r>
       <r>   21.6512    0.0000 </r>
       <r>   23.6466    0.0000 </r>
       <r>   23.6695    0.0000 </r>
       <r>   24.8789    0.0000 </r>
       <r>   25.9357    0.0000 </r>
       <r>   26.2218    0.0000 </r>
       <r>   26.2690    0.0000 </r>
      </set>
      <set comment="kpoint 23">
       <r>  -13.1443    1.0000 </r>
       <r>  -11.8703    1.0000 </r>
       <r>   -9.6952    1.0000 </r>
       <r>   -9.6702    1.0000 </r>
       <r>   -5.6117    1.0000 </r>
       <r>   -5.6034    1.0000 </r>
       <r>   -3.4723    1.0000 </r>
       <r>   -3.0471    1.0000 </r>
       <r>   -3.0100    1.0000 </r>
       <r>   -2.4595    1.0000 </r>
       <r>   -0.9300    1.0000 </r>
       <r>   -0.5762    1.0000 </r>
       <r>   -0.1608    1.0000 </r>
       <r>    0.9195    1.0000 </r>
       <r>    1.5800    1.0000 </r>
       <r>    1.6343    1.0000 </r>
       <r>    7.0764    0.0000 </r>
       <r>    7.1022    0.0000 </r>
       <r>   10.2278    0.0000 </r>
       <r>   13.4163    0.0000 </r>
       <r>   13.4634    0.0000 </r>
       <r>   13.7302    0.0000 </r>
       <r>   15.8271    0.0000 </r>
       <r>   15.8687    0.0000 </r>
       <r>   16.3438    0.0000 </r>
       <r>   16.6089    0.0000 </r>
       <r>   17.1672    0.0000 </r>
       <r>   17.6468    0.0000 </r>
       <r>   18.3033    0.0000 </r>
       <r>   19.9544    0.0000 </r>
       <r>   20.0376    0.0000 </r>
       <r>   20.3295    0.0000 </r>
       <r>   20.7710    0.0000 </r>
       <r>   22.2620    0.0000 </r>
       <r>   23.6576    0.0000 </r>
       <r>   23.7033    0.0000 </r>
       <r>   24.4973    0.0000 </r>
       <r>   26.2556    0.0000 </r>
       <r>   26.2907    0.0000 </r>
       <r>   26.3502    0.0000 </r>
      </set>
      <set comment="kpoint 24">
       <r>  -13.3767    1.0000 </r>
       <r>  -11.4690    1.0000 </r>
       <r>   -9.6207    1.0000 </r>
       <r>   -9.5817    1.0000 </r>
       <r>   -5.9940    1.0000 </r>
       <r>   -5.9934    1.0000 </r>
       <r>   -4.2005    1.0000 </r>
       <r>   -2.7436    1.0000 </r>
       <r>   -2.6514    1.0000 </r>
       <r>   -2.6064    1.0000 </r>
       <r>   -0.4632    1.0000 </r>
       <r>   -0.3774    1.0000 </r>
       <r>    0.0946    1.0000 </r>
       <r>    1.2140    1.0000 </r>
       <r>    1.6197    1.0000 </r>
       <r>    1.7014    1.0000 </r>
       <r>    6.8721    0.0000 </r>
       <r>    6.9139    0.0000 </r>
       <r>    9.3972    0.0000 </r>
       <r>   13.3296    0.0000 </r>
       <r>   13.7632    0.0000 </r>
       <r>   14.1776    0.0000 </r>
       <r>   15.5162    0.0000 </r>
       <r>   15.7767    0.0000 </r>
       <r>   16.1964    0.0000 </r>
       <r>   16.2551    0.0000 </r>
       <r>   16.3875    0.0000 </r>
       <r>   17.4926    0.0000 </r>
       <r>   18.4427    0.0000 </r>
       <r>   19.4779    0.0000 </r>
       <r>   20.9628    0.0000 </r>
       <r>   21.2610    0.0000 </r>
       <r>   21.7085    0.0000 </r>
       <r>   22.8730    0.0000 </r>
       <r>   23.6809    0.0000 </r>
       <r>   23.7490    0.0000 </r>
       <r>   24.2093    0.0000 </r>
       <r>   26.0335    0.0000 </r>
       <r>   26.1162    0.0000 </r>
       <r>   26.3246    0.0000 </r>
      </set>
      <set comment="kpoint 25">
       <r>  -13.5739    1.0000 </r>
       <r>  -11.0369    1.0000 </r>
       <r>   -9.5162    1.0000 </r>
       <r>   -9.4613    1.0000 </r>
       <r>   -6.3994    1.0000 </r>
       <r>   -6.3878    1.0000 </r>
       <r>   -4.9161    1.0000 </r>
       <r>   -2.9855    1.0000 </r>
       <r>   -2.2462    1.0000 </r>
       <r>   -2.1960    1.0000 </r>
       <r>   -0.5649    1.0000 </r>
       <r>    0.0264    1.0000 </r>
       <r>    0.7158    1.0000 </r>
       <r>    1.5015    1.0000 </r>
       <r>    1.6748    1.0000 </r>
       <r>    1.7842    1.0000 </r>
       <r>    6.6301    0.0000 </r>
       <r>    6.6904    0.0000 </r>
       <r>    8.5871    0.0000 </r>
       <r>   13.2501    0.0000 </r>
       <r>   13.7627    0.0000 </r>
       <r>   14.7620    0.0000 </r>
       <r>   14.8227    0.0000 </r>
       <r>   15.0184    0.0000 </r>
       <r>   15.6888    0.0000 </r>
       <r>   16.6674    0.0000 </r>
       <r>   16.7394    0.0000 </r>
       <r>   17.3544    0.0000 </r>
       <r>   18.5590    0.0000 </r>
       <r>   19.0692    0.0000 </r>
       <r>   21.8544    0.0000 </r>
       <r>   22.1558    0.0000 </r>
       <r>   22.6157    0.0000 </r>
       <r>   23.4724    0.0000 </r>
       <r>   23.7130    0.0000 </r>
       <r>   23.8029    0.0000 </r>
       <r>   24.0074    0.0000 </r>
       <r>   25.7619    0.0000 </r>
       <r>   25.9575    0.0000 </r>
       <r>   26.4224    0.0000 </r>
      </set>
      <set comment="kpoint 26">
       <r>  -13.7355    1.0000 </r>
       <r>  -10.5764    1.0000 </r>
       <r>   -9.3851    1.0000 </r>
       <r>   -9.3106    1.0000 </r>
       <r>   -6.7975    1.0000 </r>
       <r>   -6.7690    1.0000 </r>
       <r>   -5.6130    1.0000 </r>
       <r>   -3.1844    1.0000 </r>
       <r>   -1.8660    1.0000 </r>
       <r>   -1.8122    1.0000 </r>
       <r>   -0.7211    1.0000 </r>
       <r>    0.5270    1.0000 </r>
       <r>    1.2665    1.0000 </r>
       <r>    1.7392    1.0000 </r>
       <r>    1.7716    1.0000 </r>
       <r>    1.8759    1.0000 </r>
       <r>    6.3793    0.0000 </r>
       <r>    6.4596    0.0000 </r>
       <r>    7.8160    0.0000 </r>
       <r>   13.1810    0.0000 </r>
       <r>   13.7256    0.0000 </r>
       <r>   14.1009    0.0000 </r>
       <r>   14.3543    0.0000 </r>
       <r>   15.0881    0.0000 </r>
       <r>   15.3817    0.0000 </r>
       <r>   17.1985    0.0000 </r>
       <r>   17.2361    0.0000 </r>
       <r>   17.2791    0.0000 </r>
       <r>   18.6498    0.0000 </r>
       <r>   18.7387    0.0000 </r>
       <r>   22.6939    0.0000 </r>
       <r>   22.9929    0.0000 </r>
       <r>   23.4586    0.0000 </r>
       <r>   23.7455    0.0000 </r>
       <r>   23.8559    0.0000 </r>
       <r>   23.8797    0.0000 </r>
       <r>   24.0432    0.0000 </r>
       <r>   25.5402    0.0000 </r>
       <r>   25.8191    0.0000 </r>
       <r>   26.1975    0.0000 </r>
      </set>
      <set comment="kpoint 27">
       <r>  -13.8614    1.0000 </r>
       <r>  -10.0922    1.0000 </r>
       <r>   -9.2333    1.0000 </r>
       <r>   -9.1331    1.0000 </r>
       <r>   -7.1740    1.0000 </r>
       <r>   -7.1215    1.0000 </r>
       <r>   -6.2838    1.0000 </r>
       <r>   -3.3396    1.0000 </r>
       <r>   -1.5369    1.0000 </r>
       <r>   -1.4807    1.0000 </r>
       <r>   -0.8443    1.0000 </r>
       <r>    1.0178    1.0000 </r>
       <r>    1.7191    1.0000 </r>
       <r>    1.8049    1.0000 </r>
       <r>    1.9673    1.0000 </r>
       <r>    2.0161    1.0000 </r>
       <r>    6.1470    0.0000 </r>
       <r>    6.2477    0.0000 </r>
       <r>    7.1098    0.0000 </r>
       <r>   13.1250    0.0000 </r>
       <r>   13.5545    0.0000 </r>
       <r>   13.6570    0.0000 </r>
       <r>   13.8055    0.0000 </r>
       <r>   14.6051    0.0000 </r>
       <r>   15.8387    0.0000 </r>
       <r>   17.1411    0.0000 </r>
       <r>   17.7399    0.0000 </r>
       <r>   17.8243    0.0000 </r>
       <r>   18.4908    0.0000 </r>
       <r>   18.7152    0.0000 </r>
       <r>   23.4674    0.0000 </r>
       <r>   23.7554    0.0000 </r>
       <r>   23.7709    0.0000 </r>
       <r>   23.8100    0.0000 </r>
       <r>   23.8990    0.0000 </r>
       <r>   24.1950    0.0000 </r>
       <r>   24.5653    0.0000 </r>
       <r>   25.3679    0.0000 </r>
       <r>   25.7006    0.0000 </r>
       <r>   25.7059    0.0000 </r>
      </set>
      <set comment="kpoint 28">
       <r>  -13.9515    1.0000 </r>
       <r>   -9.5959    1.0000 </r>
       <r>   -9.0738    1.0000 </r>
       <r>   -8.9371    1.0000 </r>
       <r>   -7.5150    1.0000 </r>
       <r>   -7.4271    1.0000 </r>
       <r>   -6.9148    1.0000 </r>
       <r>   -3.4507    1.0000 </r>
       <r>   -1.2815    1.0000 </r>
       <r>   -1.2238    1.0000 </r>
       <r>   -0.9331    1.0000 </r>
       <r>    1.4610    1.0000 </r>
       <r>    1.8624    1.0000 </r>
       <r>    2.0352    1.0000 </r>
       <r>    2.0467    1.0000 </r>
       <r>    2.2353    1.0000 </r>
       <r>    5.9581    0.0000 </r>
       <r>    6.0771    0.0000 </r>
       <r>    6.5101    0.0000 </r>
       <r>   13.0839    0.0000 </r>
       <r>   13.1441    0.0000 </r>
       <r>   13.3936    0.0000 </r>
       <r>   13.5704    0.0000 </r>
       <r>   14.2581    0.0000 </r>
       <r>   16.1782    0.0000 </r>
       <r>   17.0716    0.0000 </r>
       <r>   18.2277    0.0000 </r>
       <r>   18.3116    0.0000 </r>
       <r>   18.3226    0.0000 </r>
       <r>   18.7579    0.0000 </r>
       <r>   23.7793    0.0000 </r>
       <r>   23.7814    0.0000 </r>
       <r>   23.9204    0.0000 </r>
       <r>   24.1679    0.0000 </r>
       <r>   24.4278    0.0000 </r>
       <r>   24.7775    0.0000 </r>
       <r>   25.0008    0.0000 </r>
       <r>   25.2453    0.0000 </r>
       <r>   25.2671    0.0000 </r>
       <r>   25.5419    0.0000 </r>
      </set>
      <set comment="kpoint 29">
       <r>  -14.0056    1.0000 </r>
       <r>   -9.1279    1.0000 </r>
       <r>   -8.9364    1.0000 </r>
       <r>   -8.7487    1.0000 </r>
       <r>   -7.7914    1.0000 </r>
       <r>   -7.6532    1.0000 </r>
       <r>   -7.4642    1.0000 </r>
       <r>   -3.5175    1.0000 </r>
       <r>   -1.1192    1.0000 </r>
       <r>   -1.0606    1.0000 </r>
       <r>   -0.9867    1.0000 </r>
       <r>    1.7902    1.0000 </r>
       <r>    1.9021    1.0000 </r>
       <r>    2.1014    1.0000 </r>
       <r>    2.2007    1.0000 </r>
       <r>    2.4082    1.0000 </r>
       <r>    5.8343    0.0000 </r>
       <r>    5.9665    0.0000 </r>
       <r>    6.0859    0.0000 </r>
       <r>   12.8888    0.0000 </r>
       <r>   13.0588    0.0000 </r>
       <r>   13.1374    0.0000 </r>
       <r>   13.4937    0.0000 </r>
       <r>   14.0554    0.0000 </r>
       <r>   16.3877    0.0000 </r>
       <r>   17.0292    0.0000 </r>
       <r>   18.2268    0.0000 </r>
       <r>   18.5798    0.0000 </r>
       <r>   18.6607    0.0000 </r>
       <r>   18.7818    0.0000 </r>
       <r>   23.7707    0.0000 </r>
       <r>   23.7761    0.0000 </r>
       <r>   23.9144    0.0000 </r>
       <r>   24.7944    0.0000 </r>
       <r>   24.9637    0.0000 </r>
       <r>   24.9931    0.0000 </r>
       <r>   25.1713    0.0000 </r>
       <r>   25.1732    0.0000 </r>
       <r>   25.2515    0.0000 </r>
       <r>   25.2866    0.0000 </r>
      </set>
      <set comment="kpoint 30">
       <r>  -14.0236    1.0000 </r>
       <r>   -8.8773    1.0000 </r>
       <r>   -8.8773    1.0000 </r>
       <r>   -8.6539    1.0000 </r>
       <r>   -7.9156    1.0000 </r>
       <r>   -7.7419    1.0000 </r>
       <r>   -7.7419    1.0000 </r>
       <r>   -3.5398    1.0000 </r>
       <r>   -1.0634    1.0000 </r>
       <r>   -1.0046    1.0000 </r>
       <r>   -1.0046    1.0000 </r>
       <r>    1.9162    1.0000 </r>
       <r>    1.9162    1.0000 </r>
       <r>    2.1210    1.0000 </r>
       <r>    2.2508    1.0000 </r>
       <r>    2.4740    1.0000 </r>
       <r>    5.7912    0.0000 </r>
       <r>    5.9280    0.0000 </r>
       <r>    5.9280    0.0000 </r>
       <r>   12.8020    0.0000 </r>
       <r>   13.0504    0.0000 </r>
       <r>   13.0504    0.0000 </r>
       <r>   13.4623    0.0000 </r>
       <r>   13.9902    0.0000 </r>
       <r>   16.4585    0.0000 </r>
       <r>   17.0150    0.0000 </r>
       <r>   18.1960    0.0000 </r>
       <r>   18.7107    0.0000 </r>
       <r>   18.7894    0.0000 </r>
       <r>   18.7894    0.0000 </r>
       <r>   23.7702    0.0000 </r>
       <r>   23.7702    0.0000 </r>
       <r>   23.9046    0.0000 </r>
       <r>   24.8578    0.0000 </r>
       <r>   25.1466    0.0000 </r>
       <r>   25.1468    0.0000 </r>
       <r>   25.3159    0.0000 </r>
       <r>   25.3397    0.0000 </r>
       <r>   25.3397    0.0000 </r>
       <r>   25.3615    0.0000 </r>
      </set>
      <set comment="kpoint 31">
       <r>  -14.0236    1.0000 </r>
       <r>   -8.8773    1.0000 </r>
       <r>   -8.8773    1.0000 </r>
       <r>   -8.6539    1.0000 </r>
       <r>   -7.9156    1.0000 </r>
       <r>   -7.7419    1.0000 </r>
       <r>   -7.7419    1.0000 </r>
       <r>   -3.5398    1.0000 </r>
       <r>   -1.0634    1.0000 </r>
       <r>   -1.0046    1.0000 </r>
       <r>   -1.0046    1.0000 </r>
       <r>    1.9162    1.0000 </r>
       <r>    1.9162    1.0000 </r>
       <r>    2.1210    1.0000 </r>
       <r>    2.2508    1.0000 </r>
       <r>    2.4740    1.0000 </r>
       <r>    5.7912    0.0000 </r>
       <r>    5.9280    0.0000 </r>
       <r>    5.9280    0.0000 </r>
       <r>   12.8020    0.0000 </r>
       <r>   13.0504    0.0000 </r>
       <r>   13.0504    0.0000 </r>
       <r>   13.4623    0.0000 </r>
       <r>   13.9902    0.0000 </r>
       <r>   16.4585    0.0000 </r>
       <r>   17.0150    0.0000 </r>
       <r>   18.1960    0.0000 </r>
       <r>   18.7107    0.0000 </r>
       <r>   18.7894    0.0000 </r>
       <r>   18.7894    0.0000 </r>
       <r>   23.7702    0.0000 </r>
       <r>   23.7702    0.0000 </r>
       <r>   23.9046    0.0000 </r>
       <r>   24.8578    0.0000 </r>
       <r>   25.1466    0.0000 </r>
       <r>   25.1467    0.0000 </r>
       <r>   25.3159    0.0000 </r>
       <r>   25.3397    0.0000 </r>
       <r>   25.3397    0.0000 </r>
       <r>   25.3615    0.0000 </r>
      </set>
      <set comment="kpoint 32">
       <r>  -14.0380    1.0000 </r>
       <r>   -8.8881    1.0000 </r>
       <r>   -8.8881    1.0000 </r>
       <r>   -8.6649    1.0000 </r>
       <r>   -7.9241    1.0000 </r>
       <r>   -7.7506    1.0000 </r>
       <r>   -7.7506    1.0000 </r>
       <r>   -3.4769    1.0000 </r>
       <r>   -1.0662    1.0000 </r>
       <r>   -1.0073    1.0000 </r>
       <r>   -1.0073    1.0000 </r>
       <r>    1.9659    1.0000 </r>
       <r>    1.9659    1.0000 </r>
       <r>    2.1710    1.0000 </r>
       <r>    2.2490    1.0000 </r>
       <r>    2.4722    1.0000 </r>
       <r>    5.8451    0.0000 </r>
       <r>    5.9835    0.0000 </r>
       <r>    5.9835    0.0000 </r>
       <r>   12.7836    0.0000 </r>
       <r>   13.0322    0.0000 </r>
       <r>   13.0322    0.0000 </r>
       <r>   13.4575    0.0000 </r>
       <r>   13.9853    0.0000 </r>
       <r>   16.4708    0.0000 </r>
       <r>   16.6841    0.0000 </r>
       <r>   18.1842    0.0000 </r>
       <r>   18.7048    0.0000 </r>
       <r>   18.7819    0.0000 </r>
       <r>   18.7819    0.0000 </r>
       <r>   23.1827    0.0000 </r>
       <r>   23.1827    0.0000 </r>
       <r>   23.3506    0.0000 </r>
       <r>   24.9316    0.0000 </r>
       <r>   25.2160    0.0000 </r>
       <r>   25.2164    0.0000 </r>
       <r>   25.3146    0.0000 </r>
       <r>   25.3409    0.0000 </r>
       <r>   25.3409    0.0000 </r>
       <r>   25.8036    0.0000 </r>
      </set>
      <set comment="kpoint 33">
       <r>  -14.0790    1.0000 </r>
       <r>   -8.9188    1.0000 </r>
       <r>   -8.9188    1.0000 </r>
       <r>   -8.6959    1.0000 </r>
       <r>   -7.9481    1.0000 </r>
       <r>   -7.7755    1.0000 </r>
       <r>   -7.7755    1.0000 </r>
       <r>   -3.2928    1.0000 </r>
       <r>   -1.0741    1.0000 </r>
       <r>   -1.0150    1.0000 </r>
       <r>   -1.0150    1.0000 </r>
       <r>    2.1107    1.0000 </r>
       <r>    2.1107    1.0000 </r>
       <r>    2.2439    1.0000 </r>
       <r>    2.3170    1.0000 </r>
       <r>    2.4668    1.0000 </r>
       <r>    6.0036    0.0000 </r>
       <r>    6.1462    0.0000 </r>
       <r>    6.1462    0.0000 </r>
       <r>   12.7315    0.0000 </r>
       <r>   12.9806    0.0000 </r>
       <r>   12.9806    0.0000 </r>
       <r>   13.4438    0.0000 </r>
       <r>   13.9711    0.0000 </r>
       <r>   15.8378    0.0000 </r>
       <r>   16.5074    0.0000 </r>
       <r>   18.1495    0.0000 </r>
       <r>   18.6757    0.0000 </r>
       <r>   18.7466    0.0000 </r>
       <r>   18.7466    0.0000 </r>
       <r>   22.1100    0.0000 </r>
       <r>   22.1100    0.0000 </r>
       <r>   22.2893    0.0000 </r>
       <r>   25.1521    0.0000 </r>
       <r>   25.3146    0.0000 </r>
       <r>   25.3357    0.0000 </r>
       <r>   25.3357    0.0000 </r>
       <r>   25.4344    0.0000 </r>
       <r>   25.4344    0.0000 </r>
       <r>   26.4556    0.0000 </r>
      </set>
      <set comment="kpoint 34">
       <r>  -14.1402    1.0000 </r>
       <r>   -8.9649    1.0000 </r>
       <r>   -8.9649    1.0000 </r>
       <r>   -8.7425    1.0000 </r>
       <r>   -7.9846    1.0000 </r>
       <r>   -7.8130    1.0000 </r>
       <r>   -7.8130    1.0000 </r>
       <r>   -3.0018    1.0000 </r>
       <r>   -1.0861    1.0000 </r>
       <r>   -1.0267    1.0000 </r>
       <r>   -1.0267    1.0000 </r>
       <r>    2.2360    1.0000 </r>
       <r>    2.3383    1.0000 </r>
       <r>    2.3383    1.0000 </r>
       <r>    2.4587    1.0000 </r>
       <r>    2.5465    1.0000 </r>
       <r>    6.2553    0.0000 </r>
       <r>    6.4051    0.0000 </r>
       <r>    6.4051    0.0000 </r>
       <r>   12.6538    0.0000 </r>
       <r>   12.9037    0.0000 </r>
       <r>   12.9037    0.0000 </r>
       <r>   13.4232    0.0000 </r>
       <r>   13.9501    0.0000 </r>
       <r>   14.7334    0.0000 </r>
       <r>   16.5682    0.0000 </r>
       <r>   18.0932    0.0000 </r>
       <r>   18.5877    0.0000 </r>
       <r>   18.6501    0.0000 </r>
       <r>   18.6501    0.0000 </r>
       <r>   20.9524    0.0000 </r>
       <r>   20.9524    0.0000 </r>
       <r>   21.1287    0.0000 </r>
       <r>   25.3107    0.0000 </r>
       <r>   25.3280    0.0000 </r>
       <r>   25.3280    0.0000 </r>
       <r>   25.5172    0.0000 </r>
       <r>   25.7969    0.0000 </r>
       <r>   25.8418    0.0000 </r>
       <r>   25.9762    0.0000 </r>
      </set>
      <set comment="kpoint 35">
       <r>  -14.2132    1.0000 </r>
       <r>   -9.0203    1.0000 </r>
       <r>   -9.0203    1.0000 </r>
       <r>   -8.7984    1.0000 </r>
       <r>   -8.0286    1.0000 </r>
       <r>   -7.8584    1.0000 </r>
       <r>   -7.8584    1.0000 </r>
       <r>   -2.6272    1.0000 </r>
       <r>   -1.1008    1.0000 </r>
       <r>   -1.0411    1.0000 </r>
       <r>   -1.0411    1.0000 </r>
       <r>    2.2264    1.0000 </r>
       <r>    2.4486    1.0000 </r>
       <r>    2.6283    1.0000 </r>
       <r>    2.6283    1.0000 </r>
       <r>    2.8390    1.0000 </r>
       <r>    6.5819    0.0000 </r>
       <r>    6.7415    0.0000 </r>
       <r>    6.7415    0.0000 </r>
       <r>   12.5615    0.0000 </r>
       <r>   12.8122    0.0000 </r>
       <r>   12.8122    0.0000 </r>
       <r>   13.3979    0.0000 </r>
       <r>   13.5566    0.0000 </r>
       <r>   13.9239    0.0000 </r>
       <r>   16.6454    0.0000 </r>
       <r>   18.0172    0.0000 </r>
       <r>   18.4036    0.0000 </r>
       <r>   18.4541    0.0000 </r>
       <r>   18.4541    0.0000 </r>
       <r>   19.8212    0.0000 </r>
       <r>   19.8212    0.0000 </r>
       <r>   19.9919    0.0000 </r>
       <r>   25.3046    0.0000 </r>
       <r>   25.3124    0.0000 </r>
       <r>   25.3124    0.0000 </r>
       <r>   25.5621    0.0000 </r>
       <r>   25.7298    0.0000 </r>
       <r>   25.7298    0.0000 </r>
       <r>   26.0567    0.0000 </r>
      </set>
      <set comment="kpoint 36">
       <r>  -14.2885    1.0000 </r>
       <r>   -9.0778    1.0000 </r>
       <r>   -9.0778    1.0000 </r>
       <r>   -8.8565    1.0000 </r>
       <r>   -8.0747    1.0000 </r>
       <r>   -7.9058    1.0000 </r>
       <r>   -7.9058    1.0000 </r>
       <r>   -2.2020    1.0000 </r>
       <r>   -1.1165    1.0000 </r>
       <r>   -1.0563    1.0000 </r>
       <r>   -1.0563    1.0000 </r>
       <r>    2.2162    1.0000 </r>
       <r>    2.4380    1.0000 </r>
       <r>    2.9525    1.0000 </r>
       <r>    2.9525    1.0000 </r>
       <r>    3.1661    1.0000 </r>
       <r>    6.9550    0.0000 </r>
       <r>    7.1269    0.0000 </r>
       <r>    7.1269    0.0000 </r>
       <r>   12.4241    0.0000 </r>
       <r>   12.4659    0.0000 </r>
       <r>   12.7172    0.0000 </r>
       <r>   12.7172    0.0000 </r>
       <r>   13.3711    0.0000 </r>
       <r>   13.8958    0.0000 </r>
       <r>   16.7392    0.0000 </r>
       <r>   17.9251    0.0000 </r>
       <r>   18.1063    0.0000 </r>
       <r>   18.1434    0.0000 </r>
       <r>   18.1434    0.0000 </r>
       <r>   18.7833    0.0000 </r>
       <r>   18.7833    0.0000 </r>
       <r>   18.9484    0.0000 </r>
       <r>   25.2789    0.0000 </r>
       <r>   25.2789    0.0000 </r>
       <r>   25.2983    0.0000 </r>
       <r>   25.2988    0.0000 </r>
       <r>   25.4587    0.0000 </r>
       <r>   25.4587    0.0000 </r>
       <r>   26.8745    0.0000 </r>
      </set>
      <set comment="kpoint 37">
       <r>  -14.3572    1.0000 </r>
       <r>   -9.1306    1.0000 </r>
       <r>   -9.1306    1.0000 </r>
       <r>   -8.9098    1.0000 </r>
       <r>   -8.1173    1.0000 </r>
       <r>   -7.9497    1.0000 </r>
       <r>   -7.9497    1.0000 </r>
       <r>   -1.7705    1.0000 </r>
       <r>   -1.1311    1.0000 </r>
       <r>   -1.0705    1.0000 </r>
       <r>   -1.0705    1.0000 </r>
       <r>    2.2065    1.0000 </r>
       <r>    2.4280    1.0000 </r>
       <r>    3.2745    1.0000 </r>
       <r>    3.2745    1.0000 </r>
       <r>    3.4914    1.0000 </r>
       <r>    7.3362    0.0000 </r>
       <r>    7.5220    0.0000 </r>
       <r>    7.5220    0.0000 </r>
       <r>   11.4210    0.0000 </r>
       <r>   12.3773    0.0000 </r>
       <r>   12.6288    0.0000 </r>
       <r>   12.6288    0.0000 </r>
       <r>   13.3459    0.0000 </r>
       <r>   13.8697    0.0000 </r>
       <r>   16.8446    0.0000 </r>
       <r>   17.7312    0.0000 </r>
       <r>   17.7536    0.0000 </r>
       <r>   17.7536    0.0000 </r>
       <r>   17.8222    0.0000 </r>
       <r>   17.8940    0.0000 </r>
       <r>   17.8940    0.0000 </r>
       <r>   18.0541    0.0000 </r>
       <r>   25.1996    0.0000 </r>
       <r>   25.2324    0.0000 </r>
       <r>   25.2324    0.0000 </r>
       <r>   25.2920    0.0000 </r>
       <r>   25.3667    0.0000 </r>
       <r>   25.3667    0.0000 </r>
       <r>   27.4970    0.0000 </r>
      </set>
      <set comment="kpoint 38">
       <r>  -14.4116    1.0000 </r>
       <r>   -9.1728    1.0000 </r>
       <r>   -9.1728    1.0000 </r>
       <r>   -8.9524    1.0000 </r>
       <r>   -8.1515    1.0000 </r>
       <r>   -7.9849    1.0000 </r>
       <r>   -7.9849    1.0000 </r>
       <r>   -1.3890    1.0000 </r>
       <r>   -1.1429    1.0000 </r>
       <r>   -1.0820    1.0000 </r>
       <r>   -1.0820    1.0000 </r>
       <r>    2.1987    1.0000 </r>
       <r>    2.4199    1.0000 </r>
       <r>    3.5522    1.0000 </r>
       <r>    3.5522    1.0000 </r>
       <r>    3.7719    1.0000 </r>
       <r>    7.6751    0.0000 </r>
       <r>    7.8749    0.0000 </r>
       <r>    7.8749    0.0000 </r>
       <r>   10.6228    0.0000 </r>
       <r>   12.3049    0.0000 </r>
       <r>   12.5562    0.0000 </r>
       <r>   12.5562    0.0000 </r>
       <r>   13.3255    0.0000 </r>
       <r>   13.8485    0.0000 </r>
       <r>   16.9513    0.0000 </r>
       <r>   17.2062    0.0000 </r>
       <r>   17.2062    0.0000 </r>
       <r>   17.3581    0.0000 </r>
       <r>   17.3621    0.0000 </r>
       <r>   17.3666    0.0000 </r>
       <r>   17.3666    0.0000 </r>
       <r>   17.7177    0.0000 </r>
       <r>   25.2135    0.0000 </r>
       <r>   25.2399    0.0000 </r>
       <r>   25.2399    0.0000 </r>
       <r>   25.2853    0.0000 </r>
       <r>   25.3411    0.0000 </r>
       <r>   25.3411    0.0000 </r>
       <r>   27.8408    0.0000 </r>
      </set>
      <set comment="kpoint 39">
       <r>  -14.4466    1.0000 </r>
       <r>   -9.2000    1.0000 </r>
       <r>   -9.2000    1.0000 </r>
       <r>   -8.9799    1.0000 </r>
       <r>   -8.1736    1.0000 </r>
       <r>   -8.0076    1.0000 </r>
       <r>   -8.0076    1.0000 </r>
       <r>   -1.1506    1.0000 </r>
       <r>   -1.1217    1.0000 </r>
       <r>   -1.0895    1.0000 </r>
       <r>   -1.0895    1.0000 </r>
       <r>    2.1935    1.0000 </r>
       <r>    2.4146    1.0000 </r>
       <r>    3.7419    1.0000 </r>
       <r>    3.7419    1.0000 </r>
       <r>    3.9638    1.0000 </r>
       <r>    7.9136    0.0000 </r>
       <r>    8.1242    0.0000 </r>
       <r>    8.1242    0.0000 </r>
       <r>   10.1028    0.0000 </r>
       <r>   12.2568    0.0000 </r>
       <r>   12.5075    0.0000 </r>
       <r>   12.5075    0.0000 </r>
       <r>   13.3122    0.0000 </r>
       <r>   13.8349    0.0000 </r>
       <r>   16.7686    0.0000 </r>
       <r>   16.7686    0.0000 </r>
       <r>   16.9217    0.0000 </r>
       <r>   17.0412    0.0000 </r>
       <r>   17.0802    0.0000 </r>
       <r>   17.0802    0.0000 </r>
       <r>   17.0824    0.0000 </r>
       <r>   17.6295    0.0000 </r>
       <r>   25.2652    0.0000 </r>
       <r>   25.2803    0.0000 </r>
       <r>   25.2809    0.0000 </r>
       <r>   25.2809    0.0000 </r>
       <r>   25.3271    0.0000 </r>
       <r>   25.3271    0.0000 </r>
       <r>   27.2663    0.0000 </r>
      </set>
      <set comment="kpoint 40">
       <r>  -14.4586    1.0000 </r>
       <r>   -9.2094    1.0000 </r>
       <r>   -9.2094    1.0000 </r>
       <r>   -8.9893    1.0000 </r>
       <r>   -8.1813    1.0000 </r>
       <r>   -8.0155    1.0000 </r>
       <r>   -8.0155    1.0000 </r>
       <r>   -1.1533    1.0000 </r>
       <r>   -1.0922    1.0000 </r>
       <r>   -1.0922    1.0000 </r>
       <r>   -1.0249    1.0000 </r>
       <r>    2.1918    1.0000 </r>
       <r>    2.4127    1.0000 </r>
       <r>    3.8096    1.0000 </r>
       <r>    3.8096    1.0000 </r>
       <r>    4.0323    1.0000 </r>
       <r>    8.0002    0.0000 </r>
       <r>    8.2150    0.0000 </r>
       <r>    8.2150    0.0000 </r>
       <r>    9.9213    0.0000 </r>
       <r>   12.2398    0.0000 </r>
       <r>   12.4902    0.0000 </r>
       <r>   12.4902    0.0000 </r>
       <r>   13.3076    0.0000 </r>
       <r>   13.8301    0.0000 </r>
       <r>   16.6180    0.0000 </r>
       <r>   16.6180    0.0000 </r>
       <r>   16.7701    0.0000 </r>
       <r>   16.9743    0.0000 </r>
       <r>   16.9743    0.0000 </r>
       <r>   16.9806    0.0000 </r>
       <r>   17.0792    0.0000 </r>
       <r>   17.5917    0.0000 </r>
       <r>   25.2791    0.0000 </r>
       <r>   25.2908    0.0000 </r>
       <r>   25.3076    0.0000 </r>
       <r>   25.3076    0.0000 </r>
       <r>   25.3182    0.0000 </r>
       <r>   25.3182    0.0000 </r>
       <r>   27.2245    0.0000 </r>
      </set>
     </set>
    </set>
   </array>
  </eigenvalues>
  <separator name="orbital magnetization" >
   <v name="MAGDIPOLOUT">      0.00000000      0.00000000      0.00000000</v>
  </separator>
  <dos>
   <i name="efermi">      4.52945900 </i>
   <total>
    <array>
     <dimension dim="1">gridpoints</dimension>
     <dimension dim="2">spin</dimension>
     <field>energy</field>
     <field>total</field>
     <field>integrated</field>
     <set>
      <set comment="spin 1">
       <r>   -16.5735     0.0000     0.0000 </r>
       <r>   -16.4184     0.0000     0.0000 </r>
       <r>   -16.2633     0.0000     0.0000 </r>
       <r>   -16.1082     0.0000     0.0000 </r>
       <r>   -15.9531     0.0000     0.0000 </r>
       <r>   -15.7980     0.0000     0.0000 </r>
       <r>   -15.6429     0.0000     0.0000 </r>
       <r>   -15.4879     0.0000     0.0000 </r>
       <r>   -15.3328     0.0000     0.0000 </r>
       <r>   -15.1777     0.0000     0.0000 </r>
       <r>   -15.0226     0.0000     0.0000 </r>
       <r>   -14.8675     0.0000     0.0000 </r>
       <r>   -14.7124     0.0002     0.0000 </r>
       <r>   -14.5573     0.0965     0.0150 </r>
       <r>   -14.4022     1.3059     0.2175 </r>
       <r>   -14.2471     1.4568     0.4435 </r>
       <r>   -14.0920     1.2540     0.6380 </r>
       <r>   -13.9369     1.7123     0.9035 </r>
       <r>   -13.7818     0.8475     1.0350 </r>
       <r>   -13.6267     0.5238     1.1162 </r>
       <r>   -13.4716     0.5112     1.1955 </r>
       <r>   -13.3165     0.3955     1.2569 </r>
       <r>   -13.1614     0.4029     1.3194 </r>
       <r>   -13.0063     0.9348     1.4643 </r>
       <r>   -12.8512     2.5760     1.8639 </r>
       <r>   -12.6961     1.8751     2.1547 </r>
       <r>   -12.5410     2.5032     2.5429 </r>
       <r>   -12.3859     0.7004     2.6516 </r>
       <r>   -12.2308     0.3712     2.7091 </r>
       <r>   -12.0757     0.2591     2.7493 </r>
       <r>   -11.9206     0.1270     2.7690 </r>
       <r>   -11.7655     0.4576     2.8400 </r>
       <r>   -11.6104     0.0721     2.8512 </r>
       <r>   -11.4553     0.2530     2.8904 </r>
       <r>   -11.3002     0.3582     2.9460 </r>
       <r>   -11.1451     0.0466     2.9532 </r>
       <r>   -10.9900     0.2880     2.9979 </r>
       <r>   -10.8349     0.3090     3.0458 </r>
       <r>   -10.6798     0.0503     3.0536 </r>
       <r>   -10.5247     0.2610     3.0941 </r>
       <r>   -10.3696     0.3080     3.1418 </r>
       <r>   -10.2145     0.1490     3.1650 </r>
       <r>   -10.0594     2.4004     3.5373 </r>
       <r>    -9.9043     3.9087     4.1435 </r>
       <r>    -9.7492     3.7637     4.7272 </r>
       <r>    -9.5941     3.2126     5.2255 </r>
       <r>    -9.4390     1.8481     5.5121 </r>
       <r>    -9.2839     1.7130     5.7778 </r>
       <r>    -9.1288     3.5987     6.3360 </r>
       <r>    -8.9737     3.9532     6.9491 </r>
       <r>    -8.8186     4.1580     7.5940 </r>
       <r>    -8.6635     1.9056     7.8895 </r>
       <r>    -8.5085     0.6935     7.9971 </r>
       <r>    -8.3534     0.0261     8.0012 </r>
       <r>    -8.1983     0.5275     8.0830 </r>
       <r>    -8.0432     2.5333     8.4759 </r>
       <r>    -7.8881     4.7259     9.2089 </r>
       <r>    -7.7330     4.1386     9.8507 </r>
       <r>    -7.5779     1.9371    10.1512 </r>
       <r>    -7.4228     0.9801    10.3032 </r>
       <r>    -7.2677     0.6748    10.4078 </r>
       <r>    -7.1126     0.7659    10.5266 </r>
       <r>    -6.9575     0.8111    10.6524 </r>
       <r>    -6.8024     0.5526    10.7381 </r>
       <r>    -6.6473     0.7217    10.8501 </r>
       <r>    -6.4922     0.6053    10.9440 </r>
       <r>    -6.3371     0.6724    11.0482 </r>
       <r>    -6.1820     0.8215    11.1757 </r>
       <r>    -6.0269     0.3678    11.2327 </r>
       <r>    -5.8718     0.7650    11.3513 </r>
       <r>    -5.7167     0.6698    11.4552 </r>
       <r>    -5.5616     0.8820    11.5920 </r>
       <r>    -5.4065     1.6281    11.8445 </r>
       <r>    -5.2514     3.7571    12.4273 </r>
       <r>    -5.0963     3.4059    12.9555 </r>
       <r>    -4.9412     0.7221    13.0675 </r>
       <r>    -4.7861     0.1989    13.0983 </r>
       <r>    -4.6310     0.0110    13.1000 </r>
       <r>    -4.4759     0.0600    13.1093 </r>
       <r>    -4.3208     0.2454    13.1474 </r>
       <r>    -4.1657     0.2386    13.1844 </r>
       <r>    -4.0106     0.0993    13.1998 </r>
       <r>    -3.8555     0.0143    13.2020 </r>
       <r>    -3.7004     1.1576    13.3816 </r>
       <r>    -3.5453     5.0198    14.1601 </r>
       <r>    -3.3902     4.4460    14.8497 </r>
       <r>    -3.2351     1.4280    15.0712 </r>
       <r>    -3.0800     0.9967    15.2258 </r>
       <r>    -2.9249     1.1364    15.4020 </r>
       <r>    -2.7698     0.9018    15.5419 </r>
       <r>    -2.6147     1.2236    15.7317 </r>
       <r>    -2.4596     0.6488    15.8323 </r>
       <r>    -2.3045     0.7802    15.9533 </r>
       <r>    -2.1494     3.0364    16.4242 </r>
       <r>    -1.9943     4.8275    17.1730 </r>
       <r>    -1.8392     2.3349    17.5351 </r>
       <r>    -1.6841     2.0668    17.8557 </r>
       <r>    -1.5290     1.4856    18.0861 </r>
       <r>    -1.3740     1.6430    18.3409 </r>
       <r>    -1.2189     2.5128    18.7306 </r>
       <r>    -1.0638     7.7122    19.9268 </r>
       <r>    -0.9087     8.0498    21.1753 </r>
       <r>    -0.7536     2.2145    21.5187 </r>
       <r>    -0.5985     1.3551    21.7289 </r>
       <r>    -0.4434     1.6491    21.9847 </r>
       <r>    -0.2883     0.9564    22.1330 </r>
       <r>    -0.1332     0.8380    22.2630 </r>
       <r>     0.0219     1.4626    22.4898 </r>
       <r>     0.1770     1.4054    22.7078 </r>
       <r>     0.3321     5.2657    23.5245 </r>
       <r>     0.4872     3.4088    24.0532 </r>
       <r>     0.6423     2.1672    24.3893 </r>
       <r>     0.7974     1.0827    24.5573 </r>
       <r>     0.9525     0.6429    24.6570 </r>
       <r>     1.1076     0.7338    24.7708 </r>
       <r>     1.2627     0.8783    24.9070 </r>
       <r>     1.4178     0.8064    25.0321 </r>
       <r>     1.5729     2.3068    25.3898 </r>
       <r>     1.7280     3.6627    25.9579 </r>
       <r>     1.8831     3.4786    26.4975 </r>
       <r>     2.0382     3.8348    27.0922 </r>
       <r>     2.1933     4.4824    27.7874 </r>
       <r>     2.3484     4.9983    28.5627 </r>
       <r>     2.5035     4.0111    29.1848 </r>
       <r>     2.6586     1.8375    29.4698 </r>
       <r>     2.8137     0.9400    29.6156 </r>
       <r>     2.9688     0.7081    29.7254 </r>
       <r>     3.1239     1.0447    29.8874 </r>
       <r>     3.2790     0.8284    30.0159 </r>
       <r>     3.4341     1.0334    30.1762 </r>
       <r>     3.5892     1.9851    30.4841 </r>
       <r>     3.7443     4.2666    31.1458 </r>
       <r>     3.8994     3.4354    31.6786 </r>
       <r>     4.0545     1.6244    31.9306 </r>
       <r>     4.2096     0.4423    31.9992 </r>
       <r>     4.3647     0.0055    32.0000 </r>
       <r>     4.5198     0.0000    32.0000 </r>
       <r>     4.6749     0.0000    32.0000 </r>
       <r>     4.8300     0.0000    32.0000 </r>
       <r>     4.9851     0.0000    32.0000 </r>
       <r>     5.1402     0.0000    32.0000 </r>
       <r>     5.2953     0.0000    32.0000 </r>
       <r>     5.4504     0.0000    32.0000 </r>
       <r>     5.6055     0.0031    32.0005 </r>
       <r>     5.7605     0.3099    32.0485 </r>
       <r>     5.9156     1.7290    32.3167 </r>
       <r>     6.0707     2.3791    32.6857 </r>
       <r>     6.2258     1.4811    32.9154 </r>
       <r>     6.3809     0.9779    33.0671 </r>
       <r>     6.5360     1.1129    33.2397 </r>
       <r>     6.6911     0.9451    33.3863 </r>
       <r>     6.8462     0.8738    33.5218 </r>
       <r>     7.0013     0.8148    33.6482 </r>
       <r>     7.1564     1.4109    33.8670 </r>
       <r>     7.3115     2.2036    34.2088 </r>
       <r>     7.4666     1.4792    34.4382 </r>
       <r>     7.6217     1.0524    34.6014 </r>
       <r>     7.7768     0.8167    34.7281 </r>
       <r>     7.9319     1.4925    34.9596 </r>
       <r>     8.0870     1.6196    35.2107 </r>
       <r>     8.2421     2.4870    35.5965 </r>
       <r>     8.3972     1.9325    35.8962 </r>
       <r>     8.5523     1.4114    36.1151 </r>
       <r>     8.7074     1.7804    36.3912 </r>
       <r>     8.8625     2.2977    36.7476 </r>
       <r>     9.0176     1.2731    36.9451 </r>
       <r>     9.1727     0.2079    36.9773 </r>
       <r>     9.3278     0.1955    37.0076 </r>
       <r>     9.4829     0.2368    37.0444 </r>
       <r>     9.6380     0.0516    37.0524 </r>
       <r>     9.7931     0.2389    37.0894 </r>
       <r>     9.9482     0.7310    37.2028 </r>
       <r>    10.1033     0.9151    37.3447 </r>
       <r>    10.2584     0.7202    37.4564 </r>
       <r>    10.4135     0.5311    37.5388 </r>
       <r>    10.5686     0.4575    37.6098 </r>
       <r>    10.7237     0.4526    37.6799 </r>
       <r>    10.8788     0.1620    37.7051 </r>
       <r>    11.0339     0.3948    37.7663 </r>
       <r>    11.1890     0.5190    37.8468 </r>
       <r>    11.3441     0.3193    37.8963 </r>
       <r>    11.4992     0.3302    37.9475 </r>
       <r>    11.6543     0.7664    38.0664 </r>
       <r>    11.8094     1.2305    38.2573 </r>
       <r>    11.9645     2.0190    38.5704 </r>
       <r>    12.1196     1.2907    38.7706 </r>
       <r>    12.2747     1.8636    39.0596 </r>
       <r>    12.4298     2.6713    39.4739 </r>
       <r>    12.5849     4.9123    40.2358 </r>
       <r>    12.7399     4.2679    40.8978 </r>
       <r>    12.8950     2.6755    41.3127 </r>
       <r>    13.0501     3.1334    41.7987 </r>
       <r>    13.2052     5.0897    42.5881 </r>
       <r>    13.3603     6.9976    43.6734 </r>
       <r>    13.5154     7.3827    44.8185 </r>
       <r>    13.6705     5.3536    45.6488 </r>
       <r>    13.8256     3.0682    46.1247 </r>
       <r>    13.9807     3.0989    46.6053 </r>
       <r>    14.1358     2.1070    46.9321 </r>
       <r>    14.2909     1.5860    47.1781 </r>
       <r>    14.4460     0.8904    47.3162 </r>
       <r>    14.6011     0.6135    47.4113 </r>
       <r>    14.7562     0.8539    47.5438 </r>
       <r>    14.9113     1.1093    47.7158 </r>
       <r>    15.0664     1.3558    47.9261 </r>
       <r>    15.2215     3.0686    48.4020 </r>
       <r>    15.3766     1.2961    48.6031 </r>
       <r>    15.5317     2.6801    49.0187 </r>
       <r>    15.6868     3.5951    49.5763 </r>
       <r>    15.8419     2.6219    49.9830 </r>
       <r>    15.9970     2.2464    50.3314 </r>
       <r>    16.1521     2.1973    50.6722 </r>
       <r>    16.3072     2.7340    51.0962 </r>
       <r>    16.4623     2.0900    51.4204 </r>
       <r>    16.6174     2.8670    51.8650 </r>
       <r>    16.7725     2.9589    52.3240 </r>
       <r>    16.9276     2.4409    52.7025 </r>
       <r>    17.0827     6.4981    53.7104 </r>
       <r>    17.2378     5.1787    54.5136 </r>
       <r>    17.3929     4.0199    55.1371 </r>
       <r>    17.5480     2.9245    55.5906 </r>
       <r>    17.7031     3.7686    56.1751 </r>
       <r>    17.8582     4.2561    56.8353 </r>
       <r>    18.0133     4.7721    57.5754 </r>
       <r>    18.1684     5.9733    58.5019 </r>
       <r>    18.3235     4.4173    59.1870 </r>
       <r>    18.4786     4.3501    59.8617 </r>
       <r>    18.6337     3.5546    60.4130 </r>
       <r>    18.7888     7.1797    61.5265 </r>
       <r>    18.9439     6.8111    62.5829 </r>
       <r>    19.0990     1.5193    62.8186 </r>
       <r>    19.2541     0.5129    62.8981 </r>
       <r>    19.4092     0.4331    62.9653 </r>
       <r>    19.5643     0.7192    63.0768 </r>
       <r>    19.7194     0.4651    63.1490 </r>
       <r>    19.8744     1.4768    63.3780 </r>
       <r>    20.0295     2.5060    63.7667 </r>
       <r>    20.1846     1.4656    63.9940 </r>
       <r>    20.3397     1.2383    64.1861 </r>
       <r>    20.4948     0.9014    64.3259 </r>
       <r>    20.6499     1.2323    64.5170 </r>
       <r>    20.8050     1.8457    64.8033 </r>
       <r>    20.9601     2.0923    65.1278 </r>
       <r>    21.1152     2.4952    65.5148 </r>
       <r>    21.2703     1.0283    65.6743 </r>
       <r>    21.4254     0.3177    65.7235 </r>
       <r>    21.5805     0.9509    65.8710 </r>
       <r>    21.7356     1.2719    66.0683 </r>
       <r>    21.8907     1.6880    66.3301 </r>
       <r>    22.0458     0.7855    66.4519 </r>
       <r>    22.2009     1.2062    66.6390 </r>
       <r>    22.3560     1.0707    66.8051 </r>
       <r>    22.5111     0.9971    66.9597 </r>
       <r>    22.6662     0.6089    67.0541 </r>
       <r>    22.8213     0.4970    67.1312 </r>
       <r>    22.9764     0.8166    67.2579 </r>
       <r>    23.1315     0.4763    67.3318 </r>
       <r>    23.2866     1.0207    67.4901 </r>
       <r>    23.4417     1.3511    67.6996 </r>
       <r>    23.5968     1.9685    68.0049 </r>
       <r>    23.7519     4.9653    68.7750 </r>
       <r>    23.9070     5.5639    69.6380 </r>
       <r>    24.0621     3.6450    70.2033 </r>
       <r>    24.2172     1.9488    70.5056 </r>
       <r>    24.3723     1.2302    70.6964 </r>
       <r>    24.5274     0.8344    70.8258 </r>
       <r>    24.6825     1.7391    71.0955 </r>
       <r>    24.8376     2.1569    71.4301 </r>
       <r>    24.9927     3.6671    71.9988 </r>
       <r>    25.1478     4.9683    72.7694 </r>
       <r>    25.3029    12.9374    74.7760 </r>
       <r>    25.4580    12.0379    76.6430 </r>
       <r>    25.6131     3.1636    77.1337 </r>
       <r>    25.7682     2.3306    77.4951 </r>
       <r>    25.9233     2.4871    77.8809 </r>
       <r>    26.0784     2.3700    78.2485 </r>
       <r>    26.2335     2.6334    78.6569 </r>
       <r>    26.3886     2.4831    79.0420 </r>
       <r>    26.5437     1.3244    79.2474 </r>
       <r>    26.6988     0.6560    79.3492 </r>
       <r>    26.8538     0.6078    79.4434 </r>
       <r>    27.0089     0.7077    79.5532 </r>
       <r>    27.1640     0.3649    79.6098 </r>
       <r>    27.3191     0.7891    79.7322 </r>
       <r>    27.4742     0.5497    79.8175 </r>
       <r>    27.6293     0.3704    79.8749 </r>
       <r>    27.7844     0.2978    79.9211 </r>
       <r>    27.9395     0.4577    79.9921 </r>
       <r>    28.0946     0.0509    80.0000 </r>
       <r>    28.2497     0.0001    80.0000 </r>
       <r>    28.4048     0.0000    80.0000 </r>
       <r>    28.5599     0.0000    80.0000 </r>
       <r>    28.7150     0.0000    80.0000 </r>
       <r>    28.8701     0.0000    80.0000 </r>
       <r>    29.0252     0.0000    80.0000 </r>
       <r>    29.1803     0.0000    80.0000 </r>
       <r>    29.3354     0.0000    80.0000 </r>
       <r>    29.4905     0.0000    80.0000 </r>
       <r>    29.6456     0.0000    80.0000 </r>
       <r>    29.8007     0.0000    80.0000 </r>
       <r>    29.9558     0.0000    80.0000 </r>
      </set>
     </set>
    </array>
   </total>
  </dos>
 </calculation>
 <structure name="finalpos" >
  <crystal>
   <varray name="basis" >
    <v>       4.91653297       0.01866697       0.00000000 </v>
    <v>      -2.44210041       4.26717593       0.00000000 </v>
    <v>       0.00000000       0.00000000       3.20240543 </v>
   </varray>
   <i name="volume">     67.33152776 </i>
   <varray name="rec_basis" >
    <v>       0.20295436       0.11615057       0.00000000 </v>
    <v>      -0.00088783       0.23383892       0.00000000 </v>
    <v>       0.00000000       0.00000000       0.31226527 </v>
   </varray>
  </crystal>
  <varray name="positions" >
   <v>       0.99953813       0.00046187       0.07317000 </v>
   <v>       0.33379187       0.16620813       0.07317000 </v>
   <v>       0.49953813       0.00046187       0.07317000 </v>
   <v>       0.83379185       0.16620813       0.07317000 </v>
   <v>       0.99953813       0.50046187       0.07317000 </v>
   <v>       0.33379187       0.66620815       0.07317000 </v>
   <v>       0.49953813       0.50046187       0.07317000 </v>
   <v>       0.83379185       0.66620815       0.07317000 </v>
  </varray>
 </structure>
</modeling>
