NAME                                    
           1
     4.904166   -0.000033    0.000000
    -2.452111    4.247116    0.000000
     0.000000    0.000000    3.842748
   C 
   8
Direct configuration=     1
   0.99999710  0.00000290  0.07317000
   0.33333290  0.16666710  0.07317000
   0.49999710  0.00000290  0.07317000
   0.83333287  0.16666710  0.07317000
   0.99999710  0.50000290  0.07317000
   0.33333290  0.66666713  0.07317000
   0.49999710  0.50000290  0.07317000
   0.83333287  0.66666713  0.07317000
