NAME                                    
   1.00000000000000     
     4.904166   -0.000033    0.000000
    -2.452111    4.247116    0.000000
     0.000000    0.000000    3.842748
   C 
     8
Direct
  0.999997  0.000003  0.073170
  0.333333  0.166667  0.073170
  0.499997  0.000003  0.073170
  0.833333  0.166667  0.073170
  0.999997  0.500003  0.073170
  0.333333  0.666667  0.073170
  0.499997  0.500003  0.073170
  0.833333  0.666667  0.073170
 
   40   40   32
  125.62      128.99      133.20      128.97      115.43      98.591      83.148      71.383      63.474      58.784    
  57.182      58.789      63.480      71.385      83.148      98.593      115.44      128.98      133.20      128.99    
  125.62      128.99      133.20      128.97      115.43      98.591      83.148      71.383      63.474      58.784    
  57.182      58.789      63.480      71.385      83.148      98.593      115.44      128.98      133.20      128.99    
  128.99      129.00      135.33      138.44      132.08      119.22      105.45      93.883      85.471      79.653    
  76.431      76.430      79.654      85.477      93.890      105.45      119.22      132.08      138.44      135.32    
  128.99      129.00      135.33      138.44      132.08      119.22      105.45      93.883      85.471      79.653    
  76.431      76.430      79.654      85.477      93.890      105.45      119.22      132.08      138.44      135.32    
  133.20      129.91      133.20      138.44      138.28      131.72      122.75      114.44      107.90      102.52    
  98.338      96.640      98.333      102.51      107.90      114.45      122.75      131.73      138.29      138.44    
  133.20      129.91      133.20      138.44      138.28      131.72      122.75      114.44      107.90      102.52    
  98.338      96.640      98.333      102.51      107.90      114.45      122.75      131.73      138.29      138.44    
  128.98      125.15      125.15      128.97      132.08      131.73      129.33      126.96      125.20      122.95    
  119.34      116.06      116.07      119.34      122.95      125.20      126.97      129.34      131.73      132.08    
  128.98      125.15      125.15      128.97      132.08      131.73      129.33      126.96      125.20      122.95    
  119.34      116.06      116.07      119.34      122.95      125.20      126.97      129.34      131.73      132.08    
  115.44      111.56      109.77      111.56      115.44      119.22      122.75      126.96      131.78      135.19    
  134.40      130.01      127.40      130.02      134.40      135.19      131.78      126.97      122.75      119.22    
  115.44      111.56      109.77      111.56      115.44      119.22      122.75      126.96      131.78      135.19    
  134.40      130.01      127.40      130.02      134.40      135.19      131.78      126.97      122.75      119.22    
  98.593      93.322      90.151      90.155      93.327      98.593      105.45      114.44      125.20      135.19    
  139.82      136.55      130.77      130.76      136.54      139.82      135.19      125.20      114.45      105.45    
  98.593      93.322      90.151      90.155      93.327      98.593      105.45      114.44      125.20      135.19    
  139.82      136.55      130.77      130.76      136.54      139.82      135.19      125.20      114.45      105.45    
  83.148      75.724      71.084      69.432      71.083      75.720      83.143      93.889      107.90      122.94    
  134.40      136.55      130.74      126.76      130.74      136.54      134.40      122.95      107.90      93.890    
  83.148      75.724      71.084      69.432      71.083      75.720      83.143      93.889      107.90      122.94    
  134.40      136.55      130.74      126.76      130.74      136.54      134.40      122.95      107.90      93.890    
  71.385      61.451      55.175      52.039      52.036      55.171      61.450      71.388      85.478      102.51    
  119.34      130.02      130.76      126.76      126.76      130.76      130.02      119.34      102.51      85.477    
  71.385      61.451      55.175      52.039      52.036      55.171      61.450      71.388      85.478      102.51    
  119.34      130.02      130.76      126.76      126.76      130.76      130.02      119.34      102.51      85.477    
  63.480      51.489      43.619      39.135      37.654      39.135      43.622      51.491      63.476      79.649    
  98.332      116.07      127.40      130.76      130.74      130.77      127.40      116.07      98.333      79.654    
  63.480      51.489      43.619      39.135      37.654      39.135      43.622      51.491      63.476      79.649    
  98.332      116.07      127.40      130.76      130.74      130.77      127.40      116.07      98.333      79.654    
  58.789      45.290      36.093      30.452      27.740      27.741      30.454      36.091      45.285      58.784    
  76.429      96.642      116.07      130.02      136.55      136.55      130.01      116.06      96.640      76.430    
  58.789      45.290      36.093      30.452      27.740      27.741      30.454      36.091      45.285      58.784    
  76.429      96.642      116.07      130.02      136.55      136.55      130.01      116.06      96.640      76.430    
  57.182      42.256      31.839      25.155      21.414      20.201      21.414      25.152      31.836      42.258    
  57.186      76.429      98.332      119.34      134.40      139.82      134.40      119.34      98.338      76.431    
  57.182      42.256      31.839      25.155      21.414      20.201      21.414      25.152      31.836      42.258    
  57.186      76.429      98.332      119.34      134.40      139.82      134.40      119.34      98.338      76.431    
  58.784      42.255      30.445      22.621      17.892      15.655      15.654      17.891      22.622      30.448    
  42.258      58.784      79.649      102.51      122.94      135.19      135.19      122.95      102.52      79.653    
  58.784      42.255      30.445      22.621      17.892      15.655      15.654      17.891      22.622      30.448    
  42.258      58.784      79.649      102.51      122.94      135.19      135.19      122.95      102.52      79.653    
  63.474      45.290      31.840      22.621      16.754      13.517      12.483      13.517      16.756      22.622    
  31.836      45.285      63.476      85.478      107.90      125.20      131.78      125.20      107.90      85.471    
  63.474      45.290      31.840      22.621      16.754      13.517      12.483      13.517      16.756      22.622    
  31.836      45.285      63.476      85.478      107.90      125.20      131.78      125.20      107.90      85.471    
  71.383      51.491      36.094      25.153      17.890      13.516      11.473      11.473      13.517      17.891    
  25.152      36.091      51.491      71.388      93.889      114.44      126.96      126.96      114.44      93.883    
  71.383      51.491      36.094      25.153      17.890      13.516      11.473      11.473      13.517      17.891    
  25.152      36.091      51.491      71.388      93.889      114.44      126.96      126.96      114.44      93.883    
  83.148      61.451      43.615      30.447      21.412      15.655      12.483      11.473      12.483      15.654    
  21.414      30.454      43.622      61.450      83.143      105.45      122.75      129.33      122.75      105.45    
  83.148      61.451      43.615      30.447      21.412      15.655      12.483      11.473      12.483      15.654    
  21.414      30.454      43.622      61.450      83.143      105.45      122.75      129.33      122.75      105.45    
  98.591      75.719      55.166      39.130      27.740      20.202      15.655      13.516      13.517      15.655    
  20.201      27.741      39.135      55.171      75.720      98.593      119.22      131.73      131.72      119.22    
  98.591      75.719      55.166      39.130      27.740      20.202      15.655      13.516      13.517      15.655    
  20.201      27.741      39.135      55.171      75.720      98.593      119.22      131.73      131.72      119.22    
  115.43      93.315      71.076      52.037      37.657      27.740      21.412      17.890      16.754      17.892    
  21.414      27.740      37.654      52.036      71.083      93.327      115.44      132.08      138.28      132.08    
  115.43      93.315      71.076      52.037      37.657      27.740      21.412      17.890      16.754      17.892    
  21.414      27.740      37.654      52.036      71.083      93.327      115.44      132.08      138.28      132.08    
  128.97      111.56      90.148      69.429      52.037      39.130      30.447      25.153      22.621      22.621    
  25.155      30.452      39.135      52.039      69.432      90.155      111.56      128.97      138.44      138.44    
  128.97      111.56      90.148      69.429      52.037      39.130      30.447      25.153      22.621      22.621    
  25.155      30.452      39.135      52.039      69.432      90.155      111.56      128.97      138.44      138.44    
  133.20      125.14      109.77      90.148      71.076      55.166      43.615      36.094      31.840      30.445    
  31.839      36.093      43.619      55.175      71.084      90.151      109.77      125.15      133.20      135.33    
  133.20      125.14      109.77      90.148      71.076      55.166      43.615      36.094      31.840      30.445    
  31.839      36.093      43.619      55.175      71.084      90.151      109.77      125.15      133.20      135.33    
  128.99      129.90      125.14      111.56      93.315      75.719      61.451      51.491      45.290      42.255    
  42.256      45.290      51.489      61.451      75.724      93.322      111.56      125.15      129.91      129.00    
  128.99      129.90      125.14      111.56      93.315      75.719      61.451      51.491      45.290      42.255    
  42.256      45.290      51.489      61.451      75.724      93.322      111.56      125.15      129.91      129.00    
  125.62      128.99      133.20      128.97      115.43      98.591      83.148      71.383      63.474      58.784    
  57.182      58.789      63.480      71.385      83.148      98.593      115.44      128.98      133.20      128.99    
  125.62      128.99      133.20      128.97      115.43      98.591      83.148      71.383      63.474      58.784    
  57.182      58.789      63.480      71.385      83.148      98.593      115.44      128.98      133.20      128.99    
  128.99      129.00      135.33      138.44      132.08      119.22      105.45      93.883      85.471      79.653    
  76.431      76.430      79.654      85.477      93.890      105.45      119.22      132.08      138.44      135.32    
  128.99      129.00      135.33      138.44      132.08      119.22      105.45      93.883      85.471      79.653    
  76.431      76.430      79.654      85.477      93.890      105.45      119.22      132.08      138.44      135.32    
  133.20      129.91      133.20      138.44      138.28      131.72      122.75      114.44      107.90      102.52    
  98.338      96.640      98.333      102.51      107.90      114.45      122.75      131.73      138.29      138.44    
  133.20      129.91      133.20      138.44      138.28      131.72      122.75      114.44      107.90      102.52    
  98.338      96.640      98.333      102.51      107.90      114.45      122.75      131.73      138.29      138.44    
  128.98      125.15      125.15      128.97      132.08      131.73      129.33      126.96      125.20      122.95    
  119.34      116.06      116.07      119.34      122.95      125.20      126.97      129.34      131.73      132.08    
  128.98      125.15      125.15      128.97      132.08      131.73      129.33      126.96      125.20      122.95    
  119.34      116.06      116.07      119.34      122.95      125.20      126.97      129.34      131.73      132.08    
  115.44      111.56      109.77      111.56      115.44      119.22      122.75      126.96      131.78      135.19    
  134.40      130.01      127.40      130.02      134.40      135.19      131.78      126.97      122.75      119.22    
  115.44      111.56      109.77      111.56      115.44      119.22      122.75      126.96      131.78      135.19    
  134.40      130.01      127.40      130.02      134.40      135.19      131.78      126.97      122.75      119.22    
  98.593      93.322      90.151      90.155      93.327      98.593      105.45      114.44      125.20      135.19    
  139.82      136.55      130.77      130.76      136.54      139.82      135.19      125.20      114.45      105.45    
  98.593      93.322      90.151      90.155      93.327      98.593      105.45      114.44      125.20      135.19    
  139.82      136.55      130.77      130.76      136.54      139.82      135.19      125.20      114.45      105.45    
  83.148      75.724      71.084      69.432      71.083      75.720      83.143      93.889      107.90      122.94    
  134.40      136.55      130.74      126.76      130.74      136.54      134.40      122.95      107.90      93.890    
  83.148      75.724      71.084      69.432      71.083      75.720      83.143      93.889      107.90      122.94    
  134.40      136.55      130.74      126.76      130.74      136.54      134.40      122.95      107.90      93.890    
  71.385      61.451      55.175      52.039      52.036      55.171      61.450      71.388      85.478      102.51    
  119.34      130.02      130.76      126.76      126.76      130.76      130.02      119.34      102.51      85.477    
  71.385      61.451      55.175      52.039      52.036      55.171      61.450      71.388      85.478      102.51    
  119.34      130.02      130.76      126.76      126.76      130.76      130.02      119.34      102.51      85.477    
  63.480      51.489      43.619      39.135      37.654      39.135      43.622      51.491      63.476      79.649    
  98.332      116.07      127.40      130.76      130.74      130.77      127.40      116.07      98.333      79.654    
  63.480      51.489      43.619      39.135      37.654      39.135      43.622      51.491      63.476      79.649    
  98.332      116.07      127.40      130.76      130.74      130.77      127.40      116.07      98.333      79.654    
  58.789      45.290      36.093      30.452      27.740      27.741      30.454      36.091      45.285      58.784    
  76.429      96.642      116.07      130.02      136.55      136.55      130.01      116.06      96.640      76.430    
  58.789      45.290      36.093      30.452      27.740      27.741      30.454      36.091      45.285      58.784    
  76.429      96.642      116.07      130.02      136.55      136.55      130.01      116.06      96.640      76.430    
  57.182      42.256      31.839      25.155      21.414      20.201      21.414      25.152      31.836      42.258    
  57.186      76.429      98.332      119.34      134.40      139.82      134.40      119.34      98.338      76.431    
  57.182      42.256      31.839      25.155      21.414      20.201      21.414      25.152      31.836      42.258    
  57.186      76.429      98.332      119.34      134.40      139.82      134.40      119.34      98.338      76.431    
  58.784      42.255      30.445      22.621      17.892      15.655      15.654      17.891      22.622      30.448    
  42.258      58.784      79.649      102.51      122.94      135.19      135.19      122.95      102.52      79.653    
  58.784      42.255      30.445      22.621      17.892      15.655      15.654      17.891      22.622      30.448    
  42.258      58.784      79.649      102.51      122.94      135.19      135.19      122.95      102.52      79.653    
  63.474      45.290      31.840      22.621      16.754      13.517      12.483      13.517      16.756      22.622    
  31.836      45.285      63.476      85.478      107.90      125.20      131.78      125.20      107.90      85.471    
  63.474      45.290      31.840      22.621      16.754      13.517      12.483      13.517      16.756      22.622    
  31.836      45.285      63.476      85.478      107.90      125.20      131.78      125.20      107.90      85.471    
  71.383      51.491      36.094      25.153      17.890      13.516      11.473      11.473      13.517      17.891    
  25.152      36.091      51.491      71.388      93.889      114.44      126.96      126.96      114.44      93.883    
  71.383      51.491      36.094      25.153      17.890      13.516      11.473      11.473      13.517      17.891    
  25.152      36.091      51.491      71.388      93.889      114.44      126.96      126.96      114.44      93.883    
  83.148      61.451      43.615      30.447      21.412      15.655      12.483      11.473      12.483      15.654    
  21.414      30.454      43.622      61.450      83.143      105.45      122.75      129.33      122.75      105.45    
  83.148      61.451      43.615      30.447      21.412      15.655      12.483      11.473      12.483      15.654    
  21.414      30.454      43.622      61.450      83.143      105.45      122.75      129.33      122.75      105.45    
  98.591      75.719      55.166      39.130      27.740      20.202      15.655      13.516      13.517      15.655    
  20.201      27.741      39.135      55.171      75.720      98.593      119.22      131.73      131.72      119.22    
  98.591      75.719      55.166      39.130      27.740      20.202      15.655      13.516      13.517      15.655    
  20.201      27.741      39.135      55.171      75.720      98.593      119.22      131.73      131.72      119.22    
  115.43      93.315      71.076      52.037      37.657      27.740      21.412      17.890      16.754      17.892    
  21.414      27.740      37.654      52.036      71.083      93.327      115.44      132.08      138.28      132.08    
  115.43      93.315      71.076      52.037      37.657      27.740      21.412      17.890      16.754      17.892    
  21.414      27.740      37.654      52.036      71.083      93.327      115.44      132.08      138.28      132.08    
  128.97      111.56      90.148      69.429      52.037      39.130      30.447      25.153      22.621      22.621    
  25.155      30.452      39.135      52.039      69.432      90.155      111.56      128.97      138.44      138.44    
  128.97      111.56      90.148      69.429      52.037      39.130      30.447      25.153      22.621      22.621    
  25.155      30.452      39.135      52.039      69.432      90.155      111.56      128.97      138.44      138.44    
  133.20      125.14      109.77      90.148      71.076      55.166      43.615      36.094      31.840      30.445    
  31.839      36.093      43.619      55.175      71.084      90.151      109.77      125.15      133.20      135.33    
  133.20      125.14      109.77      90.148      71.076      55.166      43.615      36.094      31.840      30.445    
  31.839      36.093      43.619      55.175      71.084      90.151      109.77      125.15      133.20      135.33    
  128.99      129.90      125.14      111.56      93.315      75.719      61.451      51.491      45.290      42.255    
  42.256      45.290      51.489      61.451      75.724      93.322      111.56      125.15      129.91      129.00    
  128.99      129.90      125.14      111.56      93.315      75.719      61.451      51.491      45.290      42.255    
  42.256      45.290      51.489      61.451      75.724      93.322      111.56      125.15      129.91      129.00    
  120.06      128.37      142.69      145.51      132.97      113.85      95.743      81.621      72.087      66.437    
  64.505      66.444      72.095      81.624      95.742      113.85      132.98      145.51      142.69      128.37    
  120.06      128.37      142.69      145.51      132.97      113.85      95.743      81.621      72.087      66.437    
  64.505      66.444      72.095      81.624      95.742      113.85      132.98      145.51      142.69      128.37    
  128.37      128.38      142.87      154.97      152.50      138.85      122.83      108.83      98.298      90.881    
  86.768      86.767      90.882      98.307      108.84      122.83      138.86      152.51      154.96      142.85    
  128.37      128.38      142.87      154.97      152.50      138.85      122.83      108.83      98.298      90.881    
  86.768      86.767      90.882      98.307      108.84      122.83      138.86      152.51      154.96      142.85    
  142.69      135.95      142.69      154.96      159.72      154.11      144.03      133.98      125.36      118.04    
  112.23      109.83      112.22      118.04      125.36      133.99      144.04      154.12      159.73      154.96    
  142.69      135.95      142.69      154.96      159.72      154.11      144.03      133.98      125.36      118.04    
  112.23      109.83      112.22      118.04      125.36      133.99      144.04      154.12      159.73      154.96    
  145.51      138.16      138.15      145.50      152.50      154.12      152.15      149.42      146.51      142.45    
  136.16      130.59      130.59      136.16      142.45      146.51      149.42      152.15      154.12      152.51    
  145.51      138.16      138.15      145.50      152.50      154.12      152.15      149.42      146.51      142.45    
  136.16      130.59      130.59      136.16      142.45      146.51      149.42      152.15      154.12      152.51    
  132.98      126.85      124.02      126.85      132.99      138.86      144.03      149.42      154.59      157.05    
  152.68      143.26      138.18      143.27      152.69      157.06      154.59      149.42      144.04      138.86    
  132.98      126.85      124.02      126.85      132.99      138.86      144.03      149.42      154.59      157.05    
  152.68      143.26      138.18      143.27      152.69      157.06      154.59      149.42      144.04      138.86    
  113.85      106.85      102.59      102.60      106.86      113.85      122.83      133.99      146.50      157.05    
  158.45      147.71      135.12      135.11      147.71      158.45      157.06      146.51      133.99      122.83    
  113.85      106.85      102.59      102.60      106.86      113.85      122.83      133.99      146.50      157.05    
  158.45      147.71      135.12      135.11      147.71      158.45      157.06      146.51      133.99      122.83    
  95.742      86.533      80.711      78.632      80.708      86.527      95.735      108.84      125.36      142.45    
  152.69      147.71      131.82      122.92      131.81      147.71      152.69      142.45      125.36      108.84    
  95.742      86.533      80.711      78.632      80.708      86.527      95.735      108.84      125.36      142.45    
  152.69      147.71      131.82      122.92      131.81      147.71      152.69      142.45      125.36      108.84    
  81.624      69.744      62.273      58.552      58.548      62.267      69.744      81.628      98.309      118.03    
  136.16      143.27      135.11      122.92      122.92      135.11      143.27      136.16      118.04      98.307    
  81.624      69.744      62.273      58.552      58.548      62.267      69.744      81.628      98.309      118.03    
  136.16      143.27      135.11      122.92      122.92      135.11      143.27      136.16      118.04      98.307    
  72.095      57.970      48.759      43.573      41.871      43.574      48.763      57.973      72.090      90.875    
  112.22      130.60      138.17      135.11      131.82      135.12      138.18      130.59      112.22      90.882    
  72.095      57.970      48.759      43.573      41.871      43.574      48.763      57.973      72.090      90.875    
  112.22      130.60      138.17      135.11      131.82      135.12      138.18      130.59      112.22      90.882    
  66.444      50.714      40.038      33.576      30.501      30.503      33.579      40.036      50.707      66.437    
  86.766      109.84      130.60      143.27      147.71      147.71      143.26      130.59      109.83      86.767    
  66.444      50.714      40.038      33.576      30.501      30.503      33.579      40.036      50.707      66.437    
  86.766      109.84      130.60      143.27      147.71      147.71      143.26      130.59      109.83      86.767    
  64.505      47.192      35.172      27.559      23.347      21.989      23.347      27.554      35.168      47.195    
  64.511      86.766      112.22      136.16      152.69      158.45      152.68      136.16      112.23      86.768    
  64.505      47.192      35.172      27.559      23.347      21.989      23.347      27.554      35.168      47.195    
  64.511      86.766      112.22      136.16      152.69      158.45      152.68      136.16      112.23      86.768    
  66.437      47.190      33.589      24.707      19.407      16.916      16.916      19.405      24.708      33.593    
  47.195      66.437      90.875      118.03      142.45      157.05      157.05      142.45      118.04      90.881    
  66.437      47.190      33.589      24.707      19.407      16.916      16.916      19.405      24.708      33.593    
  47.195      66.437      90.875      118.03      142.45      157.05      157.05      142.45      118.04      90.881    
  72.087      50.714      35.174      24.707      18.139      14.544      13.399      14.545      18.142      24.708    
  35.168      50.707      72.090      98.309      125.36      146.50      154.59      146.51      125.36      98.298    
  72.087      50.714      35.174      24.707      18.139      14.544      13.399      14.545      18.142      24.708    
  35.168      50.707      72.090      98.309      125.36      146.50      154.59      146.51      125.36      98.298    
  81.621      57.973      40.040      27.557      19.404      14.544      12.283      12.283      14.545      19.405    
  27.554      40.036      57.973      81.628      108.84      133.99      149.42      149.42      133.98      108.83    
  81.621      57.973      40.040      27.557      19.404      14.544      12.283      12.283      14.545      19.405    
  27.554      40.036      57.973      81.628      108.84      133.99      149.42      149.42      133.98      108.83    
  95.743      69.745      48.754      33.570      23.345      16.917      13.400      12.283      13.399      16.916    
  23.347      33.579      48.763      69.744      95.735      122.83      144.03      152.15      144.03      122.83    
  95.743      69.745      48.754      33.570      23.345      16.917      13.400      12.283      13.399      16.916    
  23.347      33.579      48.763      69.744      95.735      122.83      144.03      152.15      144.03      122.83    
  113.85      86.526      62.261      43.567      30.502      21.990      16.917      14.544      14.544      16.916    
  21.989      30.503      43.574      62.267      86.527      113.85      138.86      154.12      154.11      138.85    
  113.85      86.526      62.261      43.567      30.502      21.990      16.917      14.544      14.544      16.916    
  21.989      30.503      43.574      62.267      86.527      113.85      138.86      154.12      154.11      138.85    
  132.97      106.85      80.700      58.550      41.876      30.502      23.345      19.404      18.139      19.407    
  23.347      30.501      41.871      58.548      80.708      106.86      132.99      152.50      159.72      152.50    
  132.97      106.85      80.700      58.550      41.876      30.502      23.345      19.404      18.139      19.407    
  23.347      30.501      41.871      58.548      80.708      106.86      132.99      152.50      159.72      152.50    
  145.51      126.85      102.59      78.630      58.550      43.567      33.570      27.557      24.707      24.707    
  27.559      33.576      43.573      58.552      78.632      102.60      126.85      145.50      154.96      154.97    
  145.51      126.85      102.59      78.630      58.550      43.567      33.570      27.557      24.707      24.707    
  27.559      33.576      43.573      58.552      78.632      102.60      126.85      145.50      154.96      154.97    
  142.69      138.15      124.02      102.59      80.700      62.261      48.754      40.040      35.174      33.589    
  35.172      40.038      48.759      62.273      80.711      102.59      124.02      138.15      142.69      142.87    
  142.69      138.15      124.02      102.59      80.700      62.261      48.754      40.040      35.174      33.589    
  35.172      40.038      48.759      62.273      80.711      102.59      124.02      138.15      142.69      142.87    
  128.37      135.94      138.15      126.85      106.85      86.526      69.745      57.973      50.714      47.190    
  47.192      50.714      57.970      69.744      86.533      106.85      126.85      138.16      135.95      128.38    
  128.37      135.94      138.15      126.85      106.85      86.526      69.745      57.973      50.714      47.190    
  47.192      50.714      57.970      69.744      86.533      106.85      126.85      138.16      135.95      128.38    
  120.06      128.37      142.69      145.51      132.97      113.85      95.743      81.621      72.087      66.437    
  64.505      66.444      72.095      81.624      95.742      113.85      132.98      145.51      142.69      128.37    
  120.06      128.37      142.69      145.51      132.97      113.85      95.743      81.621      72.087      66.437    
  64.505      66.444      72.095      81.624      95.742      113.85      132.98      145.51      142.69      128.37    