NAME                                    
   1.00000000000000     
     4.904166   -0.000033    0.000000
    -2.452111    4.247116    0.000000
     0.000000    0.000000    3.842748
   C 
     8
Direct
  0.999997  0.000003  0.073170
  0.333333  0.166667  0.073170
  0.499997  0.000003  0.073170
  0.833333  0.166667  0.073170
  0.999997  0.500003  0.073170
  0.333333  0.666667  0.073170
  0.499997  0.500003  0.073170
  0.833333  0.666667  0.073170
 
   40   40   32
 0.12562227141E+03 0.12899304345E+03 0.13320293248E+03 0.12897405701E+03 0.11543153320E+03
 0.98591208111E+02 0.83147858904E+02 0.71383079482E+02 0.63474054648E+02 0.58783942437E+02
 0.57182302056E+02 0.58788860382E+02 0.63479612586E+02 0.71385222642E+02 0.83147761233E+02
 0.98593454446E+02 0.11543758347E+03 0.12897987703E+03 0.13320489906E+03 0.12899246847E+03
 0.12562227142E+03 0.12899304346E+03 0.13320293250E+03 0.12897405703E+03 0.11543153322E+03
 0.98591208125E+02 0.83147858917E+02 0.71383079494E+02 0.63474054659E+02 0.58783942446E+02
 0.57182302064E+02 0.58788860387E+02 0.63479612590E+02 0.71385222643E+02 0.83147761232E+02
 0.98593454443E+02 0.11543758347E+03 0.12897987702E+03 0.13320489905E+03 0.12899246845E+03
 0.12899246845E+03 0.12899764128E+03 0.13533116683E+03 0.13844398554E+03 0.13207854419E+03
 0.11921782138E+03 0.10545069146E+03 0.93882893002E+02 0.85470919592E+02 0.79653165245E+02
 0.76430780571E+02 0.76430104636E+02 0.79654455622E+02 0.85477115210E+02 0.93889791856E+02
 0.10545448897E+03 0.11922178892E+03 0.13208436821E+03 0.13844455862E+03 0.13532365389E+03
 0.12899246847E+03 0.12899764129E+03 0.13533116684E+03 0.13844398555E+03 0.13207854421E+03
 0.11921782140E+03 0.10545069148E+03 0.93882893014E+02 0.85470919602E+02 0.79653165258E+02
 0.76430780595E+02 0.76430104624E+02 0.79654455621E+02 0.85477115211E+02 0.93889791855E+02
 0.10545448896E+03 0.11922178892E+03 0.13208436821E+03 0.13844455861E+03 0.13532365388E+03
 0.13320489905E+03 0.12991257912E+03 0.13320385722E+03 0.13844129495E+03 0.13828317023E+03
 0.13172225499E+03 0.12274791969E+03 0.11443958045E+03 0.10789586265E+03 0.10251605345E+03
 0.98337568091E+02 0.96640272233E+02 0.98332796961E+02 0.10251283987E+03 0.10789865946E+03
 0.11444587079E+03 0.12275322532E+03 0.13172637415E+03 0.13828755185E+03 0.13844455862E+03
 0.13320489906E+03 0.12991257913E+03 0.13320385723E+03 0.13844129496E+03 0.13828317024E+03
 0.13172225500E+03 0.12274791970E+03 0.11443958046E+03 0.10789586270E+03 0.10251605390E+03
 0.98337568611E+02 0.96640272238E+02 0.98332796451E+02 0.10251283943E+03 0.10789865942E+03
 0.11444587079E+03 0.12275322531E+03 0.13172637414E+03 0.13828755184E+03 0.13844455861E+03
 0.12897987702E+03 0.12514959613E+03 0.12514502539E+03 0.12897181700E+03 0.13208061622E+03
 0.13172553328E+03 0.12933243112E+03 0.12696487467E+03 0.12520132573E+03 0.12294653728E+03
 0.11933932353E+03 0.11606306395E+03 0.11606518804E+03 0.11934198463E+03 0.12294620113E+03
 0.12520156355E+03 0.12696840363E+03 0.12933543627E+03 0.13172637415E+03 0.13208436821E+03
 0.12897987703E+03 0.12514959615E+03 0.12514502541E+03 0.12897181701E+03 0.13208061623E+03
 0.13172553330E+03 0.12933243114E+03 0.12696487468E+03 0.12520132610E+03 0.12294653891E+03
 0.11933932560E+03 0.11606306490E+03 0.11606518710E+03 0.11934198256E+03 0.12294619951E+03
 0.12520156319E+03 0.12696840362E+03 0.12933543626E+03 0.13172637414E+03 0.13208436820E+03
 0.11543758346E+03 0.11156059306E+03 0.10977282150E+03 0.11156128141E+03 0.11543972702E+03
 0.11922285942E+03 0.12275054966E+03 0.12696471680E+03 0.13178012165E+03 0.13519028099E+03
 0.13439766915E+03 0.13001316730E+03 0.12740455322E+03 0.13002050972E+03 0.13440449368E+03
 0.13519244886E+03 0.13178154622E+03 0.12696840363E+03 0.12275322532E+03 0.11922178892E+03
 0.11543758347E+03 0.11156059307E+03 0.10977282151E+03 0.11156128143E+03 0.11543972704E+03
 0.11922285943E+03 0.12275054968E+03 0.12696471681E+03 0.13178012228E+03 0.13519028391E+03
 0.13439767350E+03 0.13001317050E+03 0.12740455323E+03 0.13002050653E+03 0.13440448933E+03
 0.13519244595E+03 0.13178154559E+03 0.12696840362E+03 0.12275322531E+03 0.11922178891E+03
 0.98593454434E+02 0.93322203129E+02 0.90151241275E+02 0.90154536216E+02 0.93327060800E+02
 0.98592645690E+02 0.10544905869E+03 0.11444149264E+03 0.12519895032E+03 0.13518955670E+03
 0.13981739954E+03 0.13654691723E+03 0.13076701276E+03 0.13076499581E+03 0.13654449323E+03
 0.13981862080E+03 0.13519244886E+03 0.12520156355E+03 0.11444587079E+03 0.10545448897E+03
 0.98593454446E+02 0.93322203142E+02 0.90151241289E+02 0.90154536230E+02 0.93327060815E+02
 0.98592645703E+02 0.10544905871E+03 0.11444149265E+03 0.12519895079E+03 0.13518956010E+03
 0.13981740577E+03 0.13654692323E+03 0.13076701520E+03 0.13076499337E+03 0.13654448724E+03
 0.13981861457E+03 0.13519244547E+03 0.12520156308E+03 0.11444587078E+03 0.10545448896E+03
 0.83147761221E+02 0.75724423989E+02 0.71084354419E+02 0.69431611438E+02 0.71082680348E+02
 0.75719663987E+02 0.83142709025E+02 0.93888533448E+02 0.10789888338E+03 0.12294353352E+03
 0.13440232278E+03 0.13654901383E+03 0.13074387949E+03 0.12676494296E+03 0.13073658535E+03
 0.13654449323E+03 0.13440449368E+03 0.12294620113E+03 0.10789865946E+03 0.93889791856E+02
 0.83147761233E+02 0.75724424002E+02 0.71084354433E+02 0.69431611452E+02 0.71082680362E+02
 0.75719664001E+02 0.83142709038E+02 0.93888533459E+02 0.10789888346E+03 0.12294353611E+03
 0.13440232931E+03 0.13654902182E+03 0.13074388484E+03 0.12676494296E+03 0.13073658000E+03
 0.13654448524E+03 0.13440448715E+03 0.12294619854E+03 0.10789865938E+03 0.93889791846E+02
 0.71385222630E+02 0.61450734227E+02 0.55174781948E+02 0.52038835806E+02 0.52036388241E+02
 0.55170792394E+02 0.61450425231E+02 0.71388129867E+02 0.85478309471E+02 0.10251074576E+03
 0.11933921185E+03 0.13001775262E+03 0.13076150403E+03 0.12676303981E+03 0.12676494296E+03
 0.13076499581E+03 0.13002050972E+03 0.11934198463E+03 0.10251283987E+03 0.85477115210E+02
 0.71385222642E+02 0.61450734240E+02 0.55174781962E+02 0.52038835820E+02 0.52036388255E+02
 0.55170792408E+02 0.61450425244E+02 0.71388129879E+02 0.85478309480E+02 0.10251074677E+03
 0.11933921669E+03 0.13001776061E+03 0.13076151135E+03 0.12676304272E+03 0.12676494005E+03
 0.13076498849E+03 0.13002050173E+03 0.11934197979E+03 0.10251283886E+03 0.85477115200E+02
 0.63479612575E+02 0.51488873145E+02 0.43618669778E+02 0.39134860692E+02 0.37654451298E+02
 0.39135409117E+02 0.43621547154E+02 0.51490975642E+02 0.63476215998E+02 0.79648764063E+02
 0.98331873822E+02 0.11606726684E+03 0.12740213037E+03 0.13076150403E+03 0.13074387949E+03
 0.13076701276E+03 0.12740455322E+03 0.11606518804E+03 0.98332796961E+02 0.79654455622E+02
 0.63479612586E+02 0.51488873158E+02 0.43618669792E+02 0.39134860706E+02 0.37654451312E+02
 0.39135409131E+02 0.43621547167E+02 0.51490975653E+02 0.63476216007E+02 0.79648764087E+02
 0.98331875881E+02 0.11606727250E+03 0.12740213754E+03 0.13076150890E+03 0.13074387949E+03
 0.13076700788E+03 0.12740454605E+03 0.11606518237E+03 0.98332794899E+02 0.79654455597E+02
 0.58788860370E+02 0.45290241322E+02 0.36093305134E+02 0.30452483417E+02 0.27740393864E+02
 0.27741490064E+02 0.30453752263E+02 0.36091289384E+02 0.45284815672E+02 0.58783821713E+02
 0.76428635343E+02 0.96642317698E+02 0.11606726684E+03 0.13001775262E+03 0.13654901383E+03
 0.13654691723E+03 0.13001316730E+03 0.11606306395E+03 0.96640272233E+02 0.76430104636E+02
 0.58788860382E+02 0.45290241335E+02 0.36093305148E+02 0.30452483431E+02 0.27740393878E+02
 0.27741490078E+02 0.30453752276E+02 0.36091289396E+02 0.45284815683E+02 0.58783821721E+02
 0.76428635499E+02 0.96642319961E+02 0.11606727156E+03 0.13001775741E+03 0.13654901582E+03
 0.13654691523E+03 0.13001316250E+03 0.11606305923E+03 0.96640269965E+02 0.76430104475E+02
 0.57182302045E+02 0.42255747960E+02 0.31838543724E+02 0.25154982129E+02 0.21414090634E+02
 0.20200643521E+02 0.21413596834E+02 0.25152122845E+02 0.31836051186E+02 0.42258078276E+02
 0.57186065714E+02 0.76428635343E+02 0.98331873822E+02 0.11933921185E+03 0.13440232278E+03
 0.13981739954E+03 0.13439766915E+03 0.11933932353E+03 0.98337568091E+02 0.76430780571E+02
 0.57182302056E+02 0.42255747973E+02 0.31838543738E+02 0.25154982144E+02 0.21414090648E+02
 0.20200643535E+02 0.21413596847E+02 0.25152122857E+02 0.31836051196E+02 0.42258078285E+02
 0.57186065720E+02 0.76428635481E+02 0.98331875364E+02 0.11933921461E+03 0.13440232495E+03
 0.13981739954E+03 0.13439766696E+03 0.11933932076E+03 0.98337566542E+02 0.76430780427E+02
 0.58783942425E+02 0.42254607397E+02 0.30445019060E+02 0.22620890963E+02 0.17891720562E+02
 0.15654849033E+02 0.15654301291E+02 0.17890951443E+02 0.22621805353E+02 0.30448370597E+02
 0.42258078276E+02 0.58783821713E+02 0.79648764063E+02 0.10251074576E+03 0.12294353352E+03
 0.13518955670E+03 0.13519028099E+03 0.12294653728E+03 0.10251605345E+03 0.79653165245E+02
 0.58783942437E+02 0.42254607410E+02 0.30445019074E+02 0.22620890977E+02 0.17891720576E+02
 0.15654849047E+02 0.15654301304E+02 0.17890951455E+02 0.22621805363E+02 0.30448370606E+02
 0.42258078283E+02 0.58783821717E+02 0.79648764076E+02 0.10251074632E+03 0.12294353448E+03
 0.13518955718E+03 0.13519028050E+03 0.12294653631E+03 0.10251605288E+03 0.79653165223E+02
 0.63474054636E+02 0.45289626019E+02 0.31840027717E+02 0.22621143885E+02 0.16754463733E+02
 0.13516956054E+02 0.12482772401E+02 0.13517116784E+02 0.16756114791E+02 0.22621805353E+02
 0.31836051186E+02 0.45284815672E+02 0.63476215998E+02 0.85478309471E+02 0.10789888338E+03
 0.12519895032E+03 0.13178012165E+03 0.12520132573E+03 0.10789586265E+03 0.85470919592E+02
 0.63474054648E+02 0.45289626033E+02 0.31840027731E+02 0.22621143900E+02 0.16754463747E+02
 0.13516956068E+02 0.12482772414E+02 0.13517116796E+02 0.16756114801E+02 0.22621805362E+02
 0.31836051192E+02 0.45284815677E+02 0.63476216000E+02 0.85478309471E+02 0.10789888341E+03
 0.12519895041E+03 0.13178012164E+03 0.12520132561E+03 0.10789586261E+03 0.85470919581E+02
 0.71383079470E+02 0.51490830193E+02 0.36094005444E+02 0.25153389579E+02 0.17890295409E+02
 0.13516476744E+02 0.11473138249E+02 0.11473237032E+02 0.13517116784E+02 0.17890951443E+02
 0.25152122845E+02 0.36091289384E+02 0.51490975642E+02 0.71388129867E+02 0.93888533448E+02
 0.11444149264E+03 0.12696471680E+03 0.12696487467E+03 0.11443958045E+03 0.93882893002E+02
 0.71383079482E+02 0.51490830207E+02 0.36094005458E+02 0.25153389593E+02 0.17890295424E+02
 0.13516476758E+02 0.11473138263E+02 0.11473237044E+02 0.13517116795E+02 0.17890951452E+02
 0.25152122852E+02 0.36091289389E+02 0.51490975644E+02 0.71388129868E+02 0.93888533446E+02
 0.11444149264E+03 0.12696471680E+03 0.12696487466E+03 0.11443958044E+03 0.93882892991E+02
 0.83147858891E+02 0.61450551478E+02 0.43614827957E+02 0.30447382651E+02 0.21411946486E+02
 0.15654770073E+02 0.12482766664E+02 0.11473138249E+02 0.12482772401E+02 0.15654301291E+02
 0.21413596834E+02 0.30453752263E+02 0.43621547154E+02 0.61450425231E+02 0.83142709025E+02
 0.10544905869E+03 0.12275054966E+03 0.12933243112E+03 0.12274791969E+03 0.10545069146E+03
 0.83147858904E+02 0.61450551492E+02 0.43614827972E+02 0.30447382665E+02 0.21411946501E+02
 0.15654770087E+02 0.12482766677E+02 0.11473138261E+02 0.12482772412E+02 0.15654301300E+02
 0.21413596841E+02 0.30453752268E+02 0.43621547157E+02 0.61450425231E+02 0.83142709023E+02
 0.10544905869E+03 0.12275054966E+03 0.12933243112E+03 0.12274791968E+03 0.10545069145E+03
 0.98591208099E+02 0.75718513663E+02 0.55165942158E+02 0.39130200828E+02 0.27740191849E+02
 0.20201556352E+02 0.15654770073E+02 0.13516476744E+02 0.13516956054E+02 0.15654849033E+02
 0.20200643521E+02 0.27741490064E+02 0.39135409117E+02 0.55170792394E+02 0.75719663987E+02
 0.98592645690E+02 0.11922285942E+03 0.13172553328E+03 0.13172225499E+03 0.11921782138E+03
 0.98591208111E+02 0.75718513677E+02 0.55165942173E+02 0.39130200842E+02 0.27740191863E+02
 0.20201556366E+02 0.15654770086E+02 0.13516476756E+02 0.13516956064E+02 0.15654849042E+02
 0.20200643528E+02 0.27741490070E+02 0.39135409120E+02 0.55170792395E+02 0.75719663986E+02
 0.98592645686E+02 0.11922285941E+03 0.13172553328E+03 0.13172225498E+03 0.11921782137E+03
 0.11543153319E+03 0.93315294235E+02 0.71075877081E+02 0.52037292951E+02 0.37657276072E+02
 0.27740191849E+02 0.21411946486E+02 0.17890295409E+02 0.16754463733E+02 0.17891720562E+02
 0.21414090634E+02 0.27740393864E+02 0.37654451298E+02 0.52036388241E+02 0.71082680348E+02
 0.93327060800E+02 0.11543972702E+03 0.13208061622E+03 0.13828317023E+03 0.13207854419E+03
 0.11543153320E+03 0.93315294249E+02 0.71075877095E+02 0.52037292965E+02 0.37657276087E+02
 0.27740191863E+02 0.21411946500E+02 0.17890295422E+02 0.16754463744E+02 0.17891720571E+02
 0.21414090641E+02 0.27740393869E+02 0.37654451301E+02 0.52036388242E+02 0.71082680346E+02
 0.93327060797E+02 0.11543972702E+03 0.13208061621E+03 0.13828317022E+03 0.13207854418E+03
 0.12897405700E+03 0.11155672008E+03 0.90147874320E+02 0.69428931360E+02 0.52037292951E+02
 0.39130200828E+02 0.30447382651E+02 0.25153389579E+02 0.22621143885E+02 0.22620890963E+02
 0.25154982129E+02 0.30452483417E+02 0.39134860692E+02 0.52038835806E+02 0.69431611438E+02
 0.90154536216E+02 0.11156128141E+03 0.12897181700E+03 0.13844129495E+03 0.13844398554E+03
 0.12897405701E+03 0.11155672009E+03 0.90147874335E+02 0.69428931374E+02 0.52037292965E+02
 0.39130200842E+02 0.30447382664E+02 0.25153389591E+02 0.22621143896E+02 0.22620890972E+02
 0.25154982137E+02 0.30452483423E+02 0.39134860695E+02 0.52038835807E+02 0.69431611436E+02
 0.90154536212E+02 0.11156128141E+03 0.12897181699E+03 0.13844129494E+03 0.13844398553E+03
 0.13320293247E+03 0.12514493201E+03 0.10977298577E+03 0.90147874320E+02 0.71075877081E+02
 0.55165942158E+02 0.43614827957E+02 0.36094005444E+02 0.31840027717E+02 0.30445019060E+02
 0.31838543724E+02 0.36093305134E+02 0.43618669778E+02 0.55174781948E+02 0.71084354419E+02
 0.90151241275E+02 0.10977282150E+03 0.12514502539E+03 0.13320385722E+03 0.13533116683E+03
 0.13320293248E+03 0.12514493202E+03 0.10977298578E+03 0.90147874335E+02 0.71075877095E+02
 0.55165942172E+02 0.43614827971E+02 0.36094005456E+02 0.31840027728E+02 0.30445019069E+02
 0.31838543732E+02 0.36093305140E+02 0.43618669781E+02 0.55174781949E+02 0.71084354418E+02
 0.90151241271E+02 0.10977282149E+03 0.12514502538E+03 0.13320385721E+03 0.13533116681E+03
 0.12899304344E+03 0.12990449358E+03 0.12514493201E+03 0.11155672008E+03 0.93315294235E+02
 0.75718513663E+02 0.61450551478E+02 0.51490830193E+02 0.45289626019E+02 0.42254607397E+02
 0.42255747960E+02 0.45290241322E+02 0.51488873145E+02 0.61450734227E+02 0.75724423989E+02
 0.93322203129E+02 0.11156059306E+03 0.12514959613E+03 0.12991257912E+03 0.12899764128E+03
 0.12899304345E+03 0.12990449359E+03 0.12514493202E+03 0.11155672009E+03 0.93315294249E+02
 0.75718513677E+02 0.61450551491E+02 0.51490830206E+02 0.45289626030E+02 0.42254607407E+02
 0.42255747967E+02 0.45290241328E+02 0.51488873148E+02 0.61450734228E+02 0.75724423987E+02
 0.93322203125E+02 0.11156059305E+03 0.12514959613E+03 0.12991257911E+03 0.12899764127E+03
 0.12562227139E+03 0.12899304344E+03 0.13320293247E+03 0.12897405700E+03 0.11543153319E+03
 0.98591208099E+02 0.83147858891E+02 0.71383079470E+02 0.63474054636E+02 0.58783942425E+02
 0.57182302045E+02 0.58788860370E+02 0.63479612575E+02 0.71385222630E+02 0.83147761221E+02
 0.98593454434E+02 0.11543758346E+03 0.12897987702E+03 0.13320489905E+03 0.12899246845E+03
 0.12562227141E+03 0.12899304345E+03 0.13320293249E+03 0.12897405702E+03 0.11543153321E+03
 0.98591208112E+02 0.83147858904E+02 0.71383079482E+02 0.63474054647E+02 0.58783942434E+02
 0.57182302052E+02 0.58788860375E+02 0.63479612578E+02 0.71385222631E+02 0.83147761220E+02
 0.98593454431E+02 0.11543758346E+03 0.12897987701E+03 0.13320489904E+03 0.12899246844E+03
 0.12899246844E+03 0.12899764127E+03 0.13533116681E+03 0.13844398553E+03 0.13207854418E+03
 0.11921782137E+03 0.10545069145E+03 0.93882892991E+02 0.85470919581E+02 0.79653165223E+02
 0.76430780427E+02 0.76430104475E+02 0.79654455597E+02 0.85477115200E+02 0.93889791846E+02
 0.10545448896E+03 0.11922178891E+03 0.13208436820E+03 0.13844455861E+03 0.13532365388E+03
 0.12899246845E+03 0.12899764128E+03 0.13533116683E+03 0.13844398554E+03 0.13207854419E+03
 0.11921782138E+03 0.10545069147E+03 0.93882893003E+02 0.85470919591E+02 0.79653165237E+02
 0.76430780451E+02 0.76430104464E+02 0.79654455596E+02 0.85477115201E+02 0.93889791845E+02
 0.10545448895E+03 0.11922178890E+03 0.13208436819E+03 0.13844455860E+03 0.13532365387E+03
 0.13320489904E+03 0.12991257911E+03 0.13320385721E+03 0.13844129494E+03 0.13828317022E+03
 0.13172225498E+03 0.12274791968E+03 0.11443958044E+03 0.10789586261E+03 0.10251605288E+03
 0.98337566542E+02 0.96640269965E+02 0.98332794899E+02 0.10251283886E+03 0.10789865938E+03
 0.11444587078E+03 0.12275322531E+03 0.13172637414E+03 0.13828755184E+03 0.13844455861E+03
 0.13320489905E+03 0.12991257912E+03 0.13320385722E+03 0.13844129495E+03 0.13828317023E+03
 0.13172225499E+03 0.12274791969E+03 0.11443958045E+03 0.10789586266E+03 0.10251605333E+03
 0.98337567062E+02 0.96640269970E+02 0.98332794389E+02 0.10251283842E+03 0.10789865934E+03
 0.11444587078E+03 0.12275322530E+03 0.13172637414E+03 0.13828755183E+03 0.13844455860E+03
 0.12897987701E+03 0.12514959613E+03 0.12514502538E+03 0.12897181699E+03 0.13208061621E+03
 0.13172553328E+03 0.12933243112E+03 0.12696487466E+03 0.12520132561E+03 0.12294653631E+03
 0.11933932076E+03 0.11606305923E+03 0.11606518237E+03 0.11934197979E+03 0.12294619854E+03
 0.12520156308E+03 0.12696840362E+03 0.12933543626E+03 0.13172637414E+03 0.13208436821E+03
 0.12897987702E+03 0.12514959614E+03 0.12514502540E+03 0.12897181700E+03 0.13208061622E+03
 0.13172553329E+03 0.12933243113E+03 0.12696487467E+03 0.12520132599E+03 0.12294653793E+03
 0.11933932284E+03 0.11606306018E+03 0.11606518143E+03 0.11934197772E+03 0.12294619693E+03
 0.12520156272E+03 0.12696840362E+03 0.12933543626E+03 0.13172637414E+03 0.13208436819E+03
 0.11543758346E+03 0.11156059305E+03 0.10977282149E+03 0.11156128141E+03 0.11543972702E+03
 0.11922285941E+03 0.12275054966E+03 0.12696471680E+03 0.13178012164E+03 0.13519028050E+03
 0.13439766696E+03 0.13001316250E+03 0.12740454605E+03 0.13002050173E+03 0.13440448715E+03
 0.13519244547E+03 0.13178154559E+03 0.12696840362E+03 0.12275322531E+03 0.11922178892E+03
 0.11543758347E+03 0.11156059306E+03 0.10977282151E+03 0.11156128142E+03 0.11543972703E+03
 0.11922285943E+03 0.12275054967E+03 0.12696471681E+03 0.13178012228E+03 0.13519028341E+03
 0.13439767132E+03 0.13001316570E+03 0.12740454606E+03 0.13002049854E+03 0.13440448280E+03
 0.13519244255E+03 0.13178154496E+03 0.12696840362E+03 0.12275322530E+03 0.11922178890E+03
 0.98593454431E+02 0.93322203125E+02 0.90151241271E+02 0.90154536212E+02 0.93327060797E+02
 0.98592645686E+02 0.10544905869E+03 0.11444149264E+03 0.12519895041E+03 0.13518955718E+03
 0.13981739954E+03 0.13654691523E+03 0.13076700788E+03 0.13076498849E+03 0.13654448524E+03
 0.13981861457E+03 0.13519244595E+03 0.12520156319E+03 0.11444587079E+03 0.10545448896E+03
 0.98593454443E+02 0.93322203139E+02 0.90151241285E+02 0.90154536227E+02 0.93327060811E+02
 0.98592645699E+02 0.10544905870E+03 0.11444149265E+03 0.12519895089E+03 0.13518956058E+03
 0.13981740577E+03 0.13654692123E+03 0.13076701032E+03 0.13076498605E+03 0.13654447925E+03
 0.13981860835E+03 0.13519244255E+03 0.12520156272E+03 0.11444587078E+03 0.10545448895E+03
 0.83147761220E+02 0.75724423987E+02 0.71084354418E+02 0.69431611436E+02 0.71082680346E+02
 0.75719663986E+02 0.83142709023E+02 0.93888533446E+02 0.10789888341E+03 0.12294353448E+03
 0.13440232495E+03 0.13654901582E+03 0.13074387949E+03 0.12676494005E+03 0.13073658000E+03
 0.13654448724E+03 0.13440448933E+03 0.12294619951E+03 0.10789865942E+03 0.93889791855E+02
 0.83147761232E+02 0.75724424001E+02 0.71084354432E+02 0.69431611450E+02 0.71082680360E+02
 0.75719663999E+02 0.83142709036E+02 0.93888533457E+02 0.10789888348E+03 0.12294353707E+03
 0.13440233149E+03 0.13654902381E+03 0.13074388483E+03 0.12676494005E+03 0.13073657466E+03
 0.13654447925E+03 0.13440448280E+03 0.12294619693E+03 0.10789865934E+03 0.93889791845E+02
 0.71385222631E+02 0.61450734228E+02 0.55174781949E+02 0.52038835807E+02 0.52036388242E+02
 0.55170792395E+02 0.61450425231E+02 0.71388129868E+02 0.85478309471E+02 0.10251074632E+03
 0.11933921461E+03 0.13001775741E+03 0.13076150890E+03 0.12676304272E+03 0.12676494296E+03
 0.13076499337E+03 0.13002050653E+03 0.11934198256E+03 0.10251283943E+03 0.85477115211E+02
 0.71385222643E+02 0.61450734241E+02 0.55174781963E+02 0.52038835821E+02 0.52036388256E+02
 0.55170792409E+02 0.61450425244E+02 0.71388129879E+02 0.85478309480E+02 0.10251074732E+03
 0.11933921945E+03 0.13001776540E+03 0.13076151622E+03 0.12676304563E+03 0.12676494005E+03
 0.13076498605E+03 0.13002049854E+03 0.11934197772E+03 0.10251283842E+03 0.85477115201E+02
 0.63479612578E+02 0.51488873148E+02 0.43618669781E+02 0.39134860695E+02 0.37654451301E+02
 0.39135409120E+02 0.43621547157E+02 0.51490975644E+02 0.63476216000E+02 0.79648764076E+02
 0.98331875364E+02 0.11606727156E+03 0.12740213754E+03 0.13076151135E+03 0.13074388484E+03
 0.13076701520E+03 0.12740455323E+03 0.11606518710E+03 0.98332796451E+02 0.79654455621E+02
 0.63479612590E+02 0.51488873162E+02 0.43618669795E+02 0.39134860709E+02 0.37654451315E+02
 0.39135409134E+02 0.43621547170E+02 0.51490975656E+02 0.63476216010E+02 0.79648764099E+02
 0.98331877423E+02 0.11606727722E+03 0.12740214471E+03 0.13076151622E+03 0.13074388483E+03
 0.13076701032E+03 0.12740454606E+03 0.11606518143E+03 0.98332794389E+02 0.79654455596E+02
 0.58788860375E+02 0.45290241328E+02 0.36093305140E+02 0.30452483423E+02 0.27740393869E+02
 0.27741490070E+02 0.30453752268E+02 0.36091289389E+02 0.45284815677E+02 0.58783821717E+02
 0.76428635481E+02 0.96642319961E+02 0.11606727250E+03 0.13001776061E+03 0.13654902182E+03
 0.13654692323E+03 0.13001317050E+03 0.11606306490E+03 0.96640272238E+02 0.76430104624E+02
 0.58788860387E+02 0.45290241341E+02 0.36093305154E+02 0.30452483437E+02 0.27740393883E+02
 0.27741490083E+02 0.30453752281E+02 0.36091289400E+02 0.45284815687E+02 0.58783821725E+02
 0.76428635637E+02 0.96642322224E+02 0.11606727722E+03 0.13001776540E+03 0.13654902381E+03
 0.13654692123E+03 0.13001316570E+03 0.11606306018E+03 0.96640269970E+02 0.76430104464E+02
 0.57182302052E+02 0.42255747967E+02 0.31838543732E+02 0.25154982137E+02 0.21414090641E+02
 0.20200643528E+02 0.21413596841E+02 0.25152122852E+02 0.31836051192E+02 0.42258078283E+02
 0.57186065720E+02 0.76428635499E+02 0.98331875881E+02 0.11933921669E+03 0.13440232931E+03
 0.13981740577E+03 0.13439767350E+03 0.11933932560E+03 0.98337568611E+02 0.76430780595E+02
 0.57182302064E+02 0.42255747980E+02 0.31838543746E+02 0.25154982151E+02 0.21414090655E+02
 0.20200643542E+02 0.21413596854E+02 0.25152122864E+02 0.31836051203E+02 0.42258078291E+02
 0.57186065726E+02 0.76428635637E+02 0.98331877423E+02 0.11933921945E+03 0.13440233149E+03
 0.13981740577E+03 0.13439767132E+03 0.11933932284E+03 0.98337567062E+02 0.76430780451E+02
 0.58783942434E+02 0.42254607407E+02 0.30445019069E+02 0.22620890972E+02 0.17891720571E+02
 0.15654849042E+02 0.15654301300E+02 0.17890951452E+02 0.22621805362E+02 0.30448370606E+02
 0.42258078285E+02 0.58783821721E+02 0.79648764087E+02 0.10251074677E+03 0.12294353611E+03
 0.13518956010E+03 0.13519028391E+03 0.12294653891E+03 0.10251605390E+03 0.79653165258E+02
 0.58783942446E+02 0.42254607420E+02 0.30445019083E+02 0.22620890987E+02 0.17891720585E+02
 0.15654849056E+02 0.15654301313E+02 0.17890951464E+02 0.22621805372E+02 0.30448370615E+02
 0.42258078291E+02 0.58783821725E+02 0.79648764099E+02 0.10251074732E+03 0.12294353707E+03
 0.13518956058E+03 0.13519028341E+03 0.12294653793E+03 0.10251605333E+03 0.79653165237E+02
 0.63474054647E+02 0.45289626030E+02 0.31840027728E+02 0.22621143896E+02 0.16754463744E+02
 0.13516956064E+02 0.12482772412E+02 0.13517116795E+02 0.16756114801E+02 0.22621805363E+02
 0.31836051196E+02 0.45284815683E+02 0.63476216007E+02 0.85478309480E+02 0.10789888346E+03
 0.12519895079E+03 0.13178012228E+03 0.12520132610E+03 0.10789586270E+03 0.85470919602E+02
 0.63474054659E+02 0.45289626043E+02 0.31840027742E+02 0.22621143911E+02 0.16754463758E+02
 0.13516956079E+02 0.12482772425E+02 0.13517116807E+02 0.16756114812E+02 0.22621805372E+02
 0.31836051203E+02 0.45284815687E+02 0.63476216010E+02 0.85478309480E+02 0.10789888348E+03
 0.12519895089E+03 0.13178012228E+03 0.12520132599E+03 0.10789586266E+03 0.85470919591E+02
 0.71383079482E+02 0.51490830206E+02 0.36094005456E+02 0.25153389591E+02 0.17890295422E+02
 0.13516476756E+02 0.11473138261E+02 0.11473237044E+02 0.13517116796E+02 0.17890951455E+02
 0.25152122857E+02 0.36091289396E+02 0.51490975653E+02 0.71388129879E+02 0.93888533459E+02
 0.11444149265E+03 0.12696471681E+03 0.12696487468E+03 0.11443958046E+03 0.93882893014E+02
 0.71383079494E+02 0.51490830219E+02 0.36094005470E+02 0.25153389606E+02 0.17890295436E+02
 0.13516476770E+02 0.11473138275E+02 0.11473237057E+02 0.13517116807E+02 0.17890951464E+02
 0.25152122864E+02 0.36091289400E+02 0.51490975656E+02 0.71388129879E+02 0.93888533457E+02
 0.11444149265E+03 0.12696471681E+03 0.12696487467E+03 0.11443958045E+03 0.93882893003E+02
 0.83147858904E+02 0.61450551491E+02 0.43614827971E+02 0.30447382664E+02 0.21411946500E+02
 0.15654770086E+02 0.12482766677E+02 0.11473138263E+02 0.12482772414E+02 0.15654301304E+02
 0.21413596847E+02 0.30453752276E+02 0.43621547167E+02 0.61450425244E+02 0.83142709038E+02
 0.10544905871E+03 0.12275054968E+03 0.12933243114E+03 0.12274791970E+03 0.10545069148E+03
 0.83147858917E+02 0.61450551505E+02 0.43614827985E+02 0.30447382679E+02 0.21411946514E+02
 0.15654770100E+02 0.12482766691E+02 0.11473138275E+02 0.12482772425E+02 0.15654301313E+02
 0.21413596854E+02 0.30453752281E+02 0.43621547170E+02 0.61450425244E+02 0.83142709036E+02
 0.10544905870E+03 0.12275054967E+03 0.12933243113E+03 0.12274791969E+03 0.10545069147E+03
 0.98591208112E+02 0.75718513677E+02 0.55165942172E+02 0.39130200842E+02 0.27740191863E+02
 0.20201556366E+02 0.15654770087E+02 0.13516476758E+02 0.13516956068E+02 0.15654849047E+02
 0.20200643535E+02 0.27741490078E+02 0.39135409131E+02 0.55170792408E+02 0.75719664001E+02
 0.98592645703E+02 0.11922285943E+03 0.13172553330E+03 0.13172225500E+03 0.11921782140E+03
 0.98591208125E+02 0.75718513691E+02 0.55165942187E+02 0.39130200856E+02 0.27740191878E+02
 0.20201556380E+02 0.15654770100E+02 0.13516476770E+02 0.13516956079E+02 0.15654849056E+02
 0.20200643542E+02 0.27741490083E+02 0.39135409134E+02 0.55170792409E+02 0.75719663999E+02
 0.98592645699E+02 0.11922285943E+03 0.13172553329E+03 0.13172225499E+03 0.11921782138E+03
 0.11543153321E+03 0.93315294249E+02 0.71075877095E+02 0.52037292965E+02 0.37657276087E+02
 0.27740191863E+02 0.21411946501E+02 0.17890295424E+02 0.16754463747E+02 0.17891720576E+02
 0.21414090648E+02 0.27740393878E+02 0.37654451312E+02 0.52036388255E+02 0.71082680362E+02
 0.93327060815E+02 0.11543972704E+03 0.13208061623E+03 0.13828317024E+03 0.13207854421E+03
 0.11543153322E+03 0.93315294263E+02 0.71075877110E+02 0.52037292980E+02 0.37657276101E+02
 0.27740191878E+02 0.21411946514E+02 0.17890295436E+02 0.16754463758E+02 0.17891720585E+02
 0.21414090655E+02 0.27740393883E+02 0.37654451315E+02 0.52036388256E+02 0.71082680360E+02
 0.93327060811E+02 0.11543972703E+03 0.13208061622E+03 0.13828317023E+03 0.13207854420E+03
 0.12897405702E+03 0.11155672009E+03 0.90147874335E+02 0.69428931374E+02 0.52037292965E+02
 0.39130200842E+02 0.30447382665E+02 0.25153389593E+02 0.22621143900E+02 0.22620890977E+02
 0.25154982144E+02 0.30452483431E+02 0.39134860706E+02 0.52038835820E+02 0.69431611452E+02
 0.90154536230E+02 0.11156128143E+03 0.12897181701E+03 0.13844129496E+03 0.13844398555E+03
 0.12897405703E+03 0.11155672010E+03 0.90147874349E+02 0.69428931389E+02 0.52037292980E+02
 0.39130200856E+02 0.30447382679E+02 0.25153389606E+02 0.22621143911E+02 0.22620890987E+02
 0.25154982151E+02 0.30452483437E+02 0.39134860709E+02 0.52038835821E+02 0.69431611450E+02
 0.90154536227E+02 0.11156128142E+03 0.12897181700E+03 0.13844129495E+03 0.13844398554E+03
 0.13320293249E+03 0.12514493202E+03 0.10977298578E+03 0.90147874335E+02 0.71075877095E+02
 0.55165942173E+02 0.43614827972E+02 0.36094005458E+02 0.31840027731E+02 0.30445019074E+02
 0.31838543738E+02 0.36093305148E+02 0.43618669792E+02 0.55174781962E+02 0.71084354433E+02
 0.90151241289E+02 0.10977282151E+03 0.12514502541E+03 0.13320385723E+03 0.13533116684E+03
 0.13320293250E+03 0.12514493204E+03 0.10977298579E+03 0.90147874349E+02 0.71075877110E+02
 0.55165942187E+02 0.43614827985E+02 0.36094005470E+02 0.31840027742E+02 0.30445019083E+02
 0.31838543746E+02 0.36093305154E+02 0.43618669795E+02 0.55174781963E+02 0.71084354432E+02
 0.90151241285E+02 0.10977282151E+03 0.12514502540E+03 0.13320385722E+03 0.13533116683E+03
 0.12899304345E+03 0.12990449359E+03 0.12514493202E+03 0.11155672009E+03 0.93315294249E+02
 0.75718513677E+02 0.61450551492E+02 0.51490830207E+02 0.45289626033E+02 0.42254607410E+02
 0.42255747973E+02 0.45290241335E+02 0.51488873158E+02 0.61450734240E+02 0.75724424002E+02
 0.93322203142E+02 0.11156059307E+03 0.12514959615E+03 0.12991257913E+03 0.12899764129E+03
 0.12899304346E+03 0.12990449361E+03 0.12514493204E+03 0.11155672010E+03 0.93315294263E+02
 0.75718513691E+02 0.61450551505E+02 0.51490830219E+02 0.45289626043E+02 0.42254607420E+02
 0.42255747980E+02 0.45290241341E+02 0.51488873162E+02 0.61450734241E+02 0.75724424001E+02
 0.93322203139E+02 0.11156059306E+03 0.12514959614E+03 0.12991257912E+03 0.12899764128E+03
 0.12006430150E+03 0.12837069286E+03 0.14269185219E+03 0.14550577044E+03 0.13297472082E+03
 0.11385093006E+03 0.95743365168E+02 0.81621424147E+02 0.72087138262E+02 0.66436783199E+02
 0.64504851026E+02 0.66443767199E+02 0.72094750516E+02 0.81623694648E+02 0.95741988601E+02
 0.11385271298E+03 0.13298191335E+03 0.14551225089E+03 0.14269252018E+03 0.12836830208E+03