   8   8   1   0
  0.1000483E+02  0.4904166E-09  0.4904166E-09  0.3842748E-09  0.5000000E-15
  1.000000000000000E-004
  CAR 
 NAME                                    
     15.93629365    -17.64686955 1000      4.01074095      1.00000000
    -17.647  0.0000E+00  0.0000E+00
    -17.613  0.0000E+00  0.0000E+00
    -17.580  0.0000E+00  0.0000E+00
    -17.546  0.0000E+00  0.0000E+00
    -17.512  0.0000E+00  0.0000E+00
    -17.479  0.0000E+00  0.0000E+00
    -17.445  0.0000E+00  0.0000E+00
    -17.412  0.0000E+00  0.0000E+00
    -17.378  0.0000E+00  0.0000E+00
    -17.344  0.0000E+00  0.0000E+00
    -17.311  0.0000E+00  0.0000E+00
    -17.277  0.0000E+00  0.0000E+00
    -17.243  0.0000E+00  0.0000E+00
    -17.210  0.0000E+00  0.0000E+00
    -17.176  0.0000E+00  0.0000E+00
    -17.143  0.0000E+00  0.0000E+00
    -17.109  0.0000E+00  0.0000E+00
    -17.075  0.0000E+00  0.0000E+00
    -17.042  0.0000E+00  0.0000E+00
    -17.008  0.0000E+00  0.0000E+00
    -16.975  0.0000E+00  0.0000E+00
    -16.941  0.0000E+00  0.0000E+00
    -16.907  0.0000E+00  0.0000E+00
    -16.874  0.0000E+00  0.0000E+00
    -16.840  0.0000E+00  0.0000E+00
    -16.806  0.0000E+00  0.0000E+00
    -16.773  0.0000E+00  0.0000E+00
    -16.739  0.0000E+00  0.0000E+00
    -16.706  0.0000E+00  0.0000E+00
    -16.672  0.0000E+00  0.0000E+00
    -16.638  0.0000E+00  0.0000E+00
    -16.605  0.0000E+00  0.0000E+00
    -16.571  0.0000E+00  0.0000E+00
    -16.538  0.0000E+00  0.0000E+00
    -16.504  0.0000E+00  0.0000E+00
    -16.470  0.0000E+00  0.0000E+00
    -16.437  0.0000E+00  0.0000E+00
    -16.403  0.0000E+00  0.0000E+00
    -16.369  0.0000E+00  0.0000E+00
    -16.336  0.0000E+00  0.0000E+00
    -16.302  0.0000E+00  0.0000E+00
    -16.269  0.0000E+00  0.0000E+00
    -16.235  0.0000E+00  0.0000E+00
    -16.201  0.0000E+00  0.0000E+00
    -16.168  0.0000E+00  0.0000E+00
    -16.134  0.0000E+00  0.0000E+00
    -16.100  0.0000E+00  0.0000E+00
    -16.067  0.0000E+00  0.0000E+00
    -16.033  0.0000E+00  0.0000E+00
    -16.000  0.0000E+00  0.0000E+00
    -15.966  0.0000E+00  0.0000E+00
    -15.932  0.0000E+00  0.0000E+00
    -15.899  0.0000E+00  0.0000E+00
    -15.865  0.0000E+00  0.0000E+00
    -15.832  0.0000E+00  0.0000E+00
    -15.798  0.0000E+00  0.0000E+00
    -15.764  0.0000E+00  0.0000E+00
    -15.731  0.0000E+00  0.0000E+00
    -15.697  0.0000E+00  0.0000E+00
    -15.663  0.0000E+00  0.0000E+00
    -15.630  0.1447E+01  0.1231E-01
    -15.596  0.1190E+01  0.5314E-01
    -15.563  0.1209E+01  0.9564E-01
    -15.529  0.1183E+01  0.1345E+00
    -15.495  0.1267E+01  0.1757E+00
    -15.462  0.1188E+01  0.2170E+00
    -15.428  0.1183E+01  0.2567E+00
    -15.395  0.1226E+01  0.2971E+00
    -15.361  0.1248E+01  0.3390E+00
    -15.327  0.1189E+01  0.3795E+00
    -15.294  0.1196E+01  0.4196E+00
    -15.260  0.1210E+01  0.4599E+00
    -15.226  0.1236E+01  0.5011E+00
    -15.193  0.1215E+01  0.5427E+00
    -15.159  0.1194E+01  0.5832E+00
    -15.126  0.1200E+01  0.6234E+00
    -15.092  0.1210E+01  0.6639E+00
    -15.058  0.1221E+01  0.7048E+00
    -15.025  0.1239E+01  0.7461E+00
    -14.991  0.1208E+01  0.7875E+00
    -14.958  0.1205E+01  0.8280E+00
    -14.924  0.1203E+01  0.8685E+00
    -14.890  0.1211E+01  0.9091E+00
    -14.857  0.1220E+01  0.9499E+00
    -14.823  0.1229E+01  0.9911E+00
    -14.789  0.1240E+01  0.1033E+01
    -14.756  0.1216E+01  0.1074E+01
    -14.722  0.1209E+01  0.1114E+01
    -14.689  0.1211E+01  0.1155E+01
    -14.655  0.1214E+01  0.1196E+01
    -14.621  0.1219E+01  0.1237E+01
    -14.588  0.1227E+01  0.1278E+01
    -14.554  0.1235E+01  0.1319E+01
    -14.521  0.1236E+01  0.1361E+01
    -14.487  0.1218E+01  0.1402E+01
    -14.453  0.1216E+01  0.1443E+01
    -14.420  0.1216E+01  0.1484E+01
    -14.386  0.1219E+01  0.1525E+01
    -14.352  0.1223E+01  0.1566E+01
    -14.319  0.1226E+01  0.1607E+01
    -14.285  0.1551E+01  0.1661E+01
    -14.252  0.1378E+01  0.1711E+01
    -14.218  0.1191E+01  0.1754E+01
    -14.184  0.1003E+01  0.1791E+01
    -14.151  0.1241E+01  0.1837E+01
    -14.117  0.9300E+00  0.1873E+01
    -14.083  0.6741E+00  0.1899E+01
    -14.050  0.9053E+00  0.1926E+01
    -14.016  0.1136E+01  0.1960E+01
    -13.983  0.1368E+01  0.2002E+01
    -13.949  0.1599E+01  0.2052E+01
    -13.915  0.1047E+01  0.2087E+01
    -13.882  0.9541E+00  0.2151E+01
    -13.848  0.1281E+01  0.2186E+01
    -13.815  0.1812E+01  0.2238E+01
    -13.781  0.1045E+01  0.2275E+01
    -13.747  0.1073E+01  0.2311E+01
    -13.714  0.1101E+01  0.2347E+01
    -13.680  0.1131E+01  0.2385E+01
    -13.646  0.1161E+01  0.2423E+01
    -13.613  0.1191E+01  0.2463E+01
    -13.579  0.1222E+01  0.2503E+01
    -13.546  0.1252E+01  0.2545E+01
    -13.512  0.1672E+01  0.2608E+01
    -13.478  0.1131E+01  0.2661E+01
    -13.445  0.1133E+01  0.2699E+01
    -13.411  0.1136E+01  0.2737E+01
    -13.378  0.1139E+01  0.2776E+01
    -13.344  0.1143E+01  0.2814E+01
    -13.310  0.1147E+01  0.2853E+01
    -13.277  0.1151E+01  0.2891E+01
    -13.243  0.1156E+01  0.2930E+01
    -13.209  0.1162E+01  0.2969E+01
    -13.176  0.1167E+01  0.3008E+01
    -13.142  0.1169E+01  0.3047E+01
    -13.109  0.1606E+01  0.3096E+01
    -13.075  0.1365E+01  0.3146E+01
    -13.041  0.1283E+01  0.3189E+01
    -13.008  0.1355E+01  0.3233E+01
    -12.974  0.1427E+01  0.3280E+01
    -12.941  0.1172E+01  0.3328E+01
    -12.907  0.1175E+01  0.3367E+01
    -12.873  0.1179E+01  0.3407E+01
    -12.840  0.1183E+01  0.3446E+01
    -12.806  0.1187E+01  0.3486E+01
    -12.772  0.1191E+01  0.3526E+01
    -12.739  0.1196E+01  0.3566E+01
    -12.705  0.1193E+01  0.3607E+01
    -12.672  0.1191E+01  0.3647E+01
    -12.638  0.1193E+01  0.3687E+01
    -12.604  0.1194E+01  0.3727E+01
    -12.571  0.1425E+01  0.3770E+01
    -12.537  0.1381E+01  0.3818E+01
    -12.504  0.1337E+01  0.3863E+01
    -12.470  0.1293E+01  0.3907E+01
    -12.436  0.1277E+01  0.3950E+01
    -12.403  0.1301E+01  0.3994E+01
    -12.369  0.1325E+01  0.4038E+01
    -12.335  0.1350E+01  0.4083E+01
    -12.302  0.1374E+01  0.4129E+01
    -12.268  0.1218E+01  0.4175E+01
    -12.235  0.1215E+01  0.4216E+01
    -12.201  0.1216E+01  0.4256E+01
    -12.167  0.1217E+01  0.4297E+01
    -12.134  0.1219E+01  0.4338E+01
    -12.100  0.1222E+01  0.4379E+01
    -12.066  0.1224E+01  0.4420E+01
    -12.033  0.1227E+01  0.4462E+01
    -11.999  0.1230E+01  0.4503E+01
    -11.966  0.1234E+01  0.4544E+01
    -11.932  0.1237E+01  0.4586E+01
    -11.898  0.1380E+01  0.4630E+01
    -11.865  0.1366E+01  0.4676E+01
    -11.831  0.1352E+01  0.4722E+01
    -11.798  0.1338E+01  0.4767E+01
    -11.764  0.1319E+01  0.4812E+01
    -11.730  0.1302E+01  0.4856E+01
    -11.697  0.1305E+01  0.4900E+01
    -11.663  0.1317E+01  0.4944E+01
    -11.629  0.1328E+01  0.4988E+01
    -11.596  0.1340E+01  0.5033E+01
    -11.562  0.1352E+01  0.5078E+01
    -11.529  0.1364E+01  0.5124E+01
    -11.495  0.1377E+01  0.5170E+01
    -11.461  0.1268E+01  0.5214E+01
    -11.428  0.1271E+01  0.5257E+01
    -11.394  0.1275E+01  0.5300E+01
    -11.361  0.1279E+01  0.5343E+01
    -11.327  0.1283E+01  0.5386E+01
    -11.293  0.1287E+01  0.5429E+01
    -11.260  0.1287E+01  0.5472E+01
    -11.226  0.1290E+01  0.5515E+01
    -11.192  0.1293E+01  0.5559E+01
    -11.159  0.1297E+01  0.5602E+01
    -11.125  0.1408E+01  0.5648E+01
    -11.092  0.1404E+01  0.5695E+01
    -11.058  0.1401E+01  0.5742E+01
    -11.024  0.1398E+01  0.5789E+01
    -10.991  0.1394E+01  0.5836E+01
    -10.957  0.1391E+01  0.5883E+01
    -10.924  0.1388E+01  0.5930E+01
    -10.890  0.1391E+01  0.5976E+01
    -10.856  0.1406E+01  0.6023E+01
    -10.823  0.1421E+01  0.6071E+01
    -10.789  0.1437E+01  0.6119E+01
    -10.755  0.1454E+01  0.6168E+01
    -10.722  0.1471E+01  0.6217E+01
    -10.688  0.1490E+01  0.6266E+01
    -10.655  0.1509E+01  0.6317E+01
    -10.621  0.1483E+01  0.6367E+01
    -10.587  0.1488E+01  0.6417E+01
    -10.554  0.1506E+01  0.6468E+01
    -10.520  0.1533E+01  0.6519E+01
    -10.486  0.1565E+01  0.6571E+01
    -10.453  0.1596E+01  0.6624E+01
    -10.419  0.1628E+01  0.6678E+01
    -10.386  0.1660E+01  0.6733E+01
    -10.352  0.2501E+01  0.6820E+01
    -10.318  0.2028E+01  0.6896E+01
    -10.285  0.1621E+01  0.6957E+01
    -10.251  0.2768E+01  0.7023E+01
    -10.218  0.1313E+01  0.7083E+01
    -10.184  0.1252E+01  0.7126E+01
    -10.150  0.1192E+01  0.7167E+01
    -10.117  0.1137E+01  0.7206E+01
    -10.083  0.1083E+01  0.7243E+01
    -10.049  0.1086E+01  0.7280E+01
    -10.016  0.1040E+01  0.7336E+01
     -9.982  0.9965E+00  0.7370E+01
     -9.949  0.9530E+00  0.7403E+01
     -9.915  0.9094E+00  0.7434E+01
     -9.881  0.8658E+00  0.7464E+01
     -9.848  0.8223E+00  0.7492E+01
     -9.814  0.7787E+00  0.7519E+01
     -9.781  0.7352E+00  0.7545E+01
     -9.747  0.7016E+00  0.7569E+01
     -9.713  0.7936E+00  0.7594E+01
     -9.680  0.8857E+00  0.7622E+01
     -9.646  0.7056E+00  0.7651E+01
     -9.612  0.6745E+00  0.7674E+01
     -9.579  0.6435E+00  0.7696E+01
     -9.545  0.6124E+00  0.7718E+01
     -9.512  0.5814E+00  0.7738E+01
     -9.478  0.5503E+00  0.7757E+01
     -9.444  0.5193E+00  0.7775E+01
     -9.411  0.4882E+00  0.7792E+01
     -9.377  0.4572E+00  0.7807E+01
     -9.344  0.4261E+00  0.7822E+01
     -9.310  0.4255E+00  0.7836E+01
     -9.276  0.5405E+00  0.7852E+01
     -9.243  0.7588E+00  0.7874E+01
     -9.209  0.1343E+01  0.7907E+01
     -9.175  0.1906E+01  0.7963E+01
     -9.142  0.9543E+00  0.8009E+01
     -9.108  0.1020E+01  0.8042E+01
     -9.075  0.1085E+01  0.8078E+01
     -9.041  0.1171E+01  0.8140E+01
     -9.007  0.1186E+01  0.8180E+01
     -8.974  0.1201E+01  0.8220E+01
     -8.940  0.1216E+01  0.8261E+01
     -8.907  0.1244E+01  0.8302E+01
     -8.873  0.1248E+01  0.8344E+01
     -8.839  0.1263E+01  0.8386E+01
     -8.806  0.2007E+01  0.8439E+01
     -8.772  0.1146E+01  0.8497E+01
     -8.738  0.1153E+01  0.8535E+01
     -8.705  0.1160E+01  0.8574E+01
     -8.671  0.1178E+01  0.8613E+01
     -8.638  0.1212E+01  0.8654E+01
     -8.604  0.1245E+01  0.8695E+01
     -8.570  0.1279E+01  0.8737E+01
     -8.537  0.1320E+01  0.8781E+01
     -8.503  0.2054E+01  0.8834E+01
     -8.469  0.1391E+01  0.8892E+01
     -8.436  0.1411E+01  0.8938E+01
     -8.402  0.1709E+01  0.8999E+01
     -8.369  0.1895E+01  0.9060E+01
     -8.335  0.2081E+01  0.9127E+01
     -8.301  0.2268E+01  0.9200E+01
     -8.268  0.1895E+01  0.9278E+01
     -8.234  0.1813E+01  0.9340E+01
     -8.201  0.1734E+01  0.9400E+01
     -8.167  0.1597E+01  0.9456E+01
     -8.133  0.1522E+01  0.9508E+01
     -8.100  0.1503E+01  0.9559E+01
     -8.066  0.1485E+01  0.9609E+01
     -8.032  0.1467E+01  0.9659E+01
     -7.999  0.1449E+01  0.9708E+01
     -7.965  0.1433E+01  0.9756E+01
     -7.932  0.1417E+01  0.9804E+01
     -7.898  0.1402E+01  0.9851E+01
     -7.864  0.1387E+01  0.9898E+01
     -7.831  0.1417E+01  0.9946E+01
     -7.797  0.1363E+01  0.9992E+01
     -7.764  0.1355E+01  0.1004E+02
     -7.730  0.1347E+01  0.1008E+02
     -7.696  0.1339E+01  0.1013E+02
     -7.663  0.1331E+01  0.1017E+02
     -7.629  0.1323E+01  0.1022E+02
     -7.595  0.1315E+01  0.1026E+02
     -7.562  0.1306E+01  0.1031E+02
     -7.528  0.1289E+01  0.1035E+02
     -7.495  0.1272E+01  0.1039E+02
     -7.461  0.1255E+01  0.1044E+02
     -7.427  0.1239E+01  0.1048E+02
     -7.394  0.1226E+01  0.1052E+02
     -7.360  0.1216E+01  0.1056E+02
     -7.327  0.1214E+01  0.1060E+02
     -7.293  0.1209E+01  0.1064E+02
     -7.259  0.1204E+01  0.1068E+02
     -7.226  0.1200E+01  0.1072E+02
     -7.192  0.1195E+01  0.1076E+02
     -7.158  0.1191E+01  0.1080E+02
     -7.125  0.1186E+01  0.1084E+02
     -7.091  0.1181E+01  0.1088E+02
     -7.058  0.1176E+01  0.1092E+02
     -7.024  0.1170E+01  0.1096E+02
     -6.990  0.1086E+01  0.1100E+02
     -6.957  0.1083E+01  0.1104E+02
     -6.923  0.1080E+01  0.1107E+02
     -6.889  0.1077E+01  0.1111E+02
     -6.856  0.1074E+01  0.1115E+02
     -6.822  0.1070E+01  0.1118E+02
     -6.789  0.1067E+01  0.1122E+02
     -6.755  0.1063E+01  0.1125E+02
     -6.721  0.1060E+01  0.1129E+02
     -6.688  0.1056E+01  0.1132E+02
     -6.654  0.1046E+01  0.1136E+02
     -6.621  0.1078E+01  0.1140E+02
     -6.587  0.1066E+01  0.1143E+02
     -6.553  0.1053E+01  0.1147E+02
     -6.520  0.1416E+01  0.1152E+02
     -6.486  0.1392E+01  0.1157E+02
     -6.452  0.1374E+01  0.1162E+02
     -6.419  0.1373E+01  0.1166E+02
     -6.385  0.1394E+01  0.1171E+02
     -6.352  0.1414E+01  0.1176E+02
     -6.318  0.1433E+01  0.1180E+02
     -6.284  0.1452E+01  0.1185E+02
     -6.251  0.1472E+01  0.1190E+02
     -6.217  0.1439E+01  0.1195E+02
     -6.184  0.1432E+01  0.1200E+02
     -6.150  0.1425E+01  0.1205E+02
     -6.116  0.1419E+01  0.1210E+02
     -6.083  0.1439E+01  0.1214E+02
     -6.049  0.1539E+01  0.1219E+02
     -6.015  0.1581E+01  0.1225E+02
     -5.982  0.1623E+01  0.1230E+02
     -5.948  0.1666E+01  0.1236E+02
     -5.915  0.1708E+01  0.1241E+02
     -5.881  0.1750E+01  0.1247E+02
     -5.847  0.1793E+01  0.1253E+02
     -5.814  0.1837E+01  0.1259E+02
     -5.780  0.1819E+01  0.1265E+02
     -5.747  0.3418E+01  0.1275E+02
     -5.713  0.1131E+01  0.1282E+02
     -5.679  0.3917E+00  0.1284E+02
     -5.646  0.3961E+00  0.1286E+02
     -5.612  0.4005E+00  0.1287E+02
     -5.578  0.4049E+00  0.1288E+02
     -5.545  0.7895E+00  0.1290E+02
     -5.511  0.1138E+01  0.1294E+02
     -5.478  0.1198E+01  0.1298E+02
     -5.444  0.1262E+01  0.1302E+02
     -5.410  0.1334E+01  0.1306E+02
     -5.377  0.1627E+01  0.1311E+02
     -5.343  0.1946E+01  0.1317E+02
     -5.310  0.1838E+01  0.1323E+02
     -5.276  0.1746E+01  0.1329E+02
     -5.242  0.1653E+01  0.1335E+02
     -5.209  0.1561E+01  0.1341E+02
     -5.175  0.1777E+01  0.1346E+02
     -5.141  0.1747E+01  0.1352E+02
     -5.108  0.1715E+01  0.1357E+02
     -5.074  0.1673E+01  0.1363E+02
     -5.041  0.1641E+01  0.1369E+02
     -5.007  0.1626E+01  0.1374E+02
     -4.973  0.1597E+01  0.1380E+02
     -4.940  0.1546E+01  0.1385E+02
     -4.906  0.1501E+01  0.1390E+02
     -4.872  0.1455E+01  0.1395E+02
     -4.839  0.1410E+01  0.1400E+02
     -4.805  0.1365E+01  0.1404E+02
     -4.772  0.1320E+01  0.1409E+02
     -4.738  0.1411E+01  0.1413E+02
     -4.704  0.1544E+01  0.1418E+02
     -4.671  0.1676E+01  0.1424E+02
     -4.637  0.1809E+01  0.1430E+02
     -4.604  0.1794E+01  0.1436E+02
     -4.570  0.1766E+01  0.1442E+02
     -4.536  0.1729E+01  0.1448E+02
     -4.503  0.1688E+01  0.1453E+02
     -4.469  0.1621E+01  0.1459E+02
     -4.435  0.1536E+01  0.1464E+02
     -4.402  0.1449E+01  0.1469E+02
     -4.368  0.1362E+01  0.1474E+02
     -4.335  0.1305E+01  0.1479E+02
     -4.301  0.1425E+01  0.1483E+02
     -4.267  0.1546E+01  0.1488E+02
     -4.234  0.1666E+01  0.1494E+02
     -4.200  0.1757E+01  0.1499E+02
     -4.167  0.1767E+01  0.1505E+02
     -4.133  0.1668E+01  0.1511E+02
     -4.099  0.1682E+01  0.1517E+02
     -4.066  0.1696E+01  0.1522E+02
     -4.032  0.1709E+01  0.1528E+02
     -3.998  0.1736E+01  0.1534E+02
     -3.965  0.1762E+01  0.1540E+02
     -3.931  0.1784E+01  0.1546E+02
     -3.898  0.1810E+01  0.1553E+02
     -3.864  0.1827E+01  0.1560E+02
     -3.830  0.1803E+01  0.1566E+02
     -3.797  0.1766E+01  0.1572E+02
     -3.763  0.1892E+01  0.1578E+02
     -3.730  0.1844E+01  0.1584E+02
     -3.696  0.1797E+01  0.1590E+02
     -3.662  0.1748E+01  0.1596E+02
     -3.629  0.1699E+01  0.1602E+02
     -3.595  0.1650E+01  0.1608E+02
     -3.561  0.1601E+01  0.1613E+02
     -3.528  0.1553E+01  0.1618E+02
     -3.494  0.1504E+01  0.1623E+02
     -3.461  0.2090E+01  0.1632E+02
     -3.427  0.1803E+01  0.1638E+02
     -3.393  0.1743E+01  0.1644E+02
     -3.360  0.1747E+01  0.1650E+02
     -3.326  0.1930E+01  0.1656E+02
     -3.293  0.1729E+01  0.1663E+02
     -3.259  0.2669E+01  0.1672E+02
     -3.225  0.2898E+01  0.1681E+02
     -3.192  0.2928E+01  0.1691E+02
     -3.158  0.2957E+01  0.1701E+02
     -3.124  0.3071E+01  0.1711E+02
     -3.091  0.2487E+01  0.1721E+02
     -3.057  0.1968E+01  0.1729E+02
     -3.024  0.2485E+01  0.1735E+02
     -2.990  0.3983E+01  0.1748E+02
     -2.956  0.4411E+01  0.1763E+02
     -2.923  0.3064E+01  0.1774E+02
     -2.889  0.3382E+01  0.1785E+02
     -2.855  0.3640E+01  0.1797E+02
     -2.822  0.3550E+01  0.1809E+02
     -2.788  0.3488E+01  0.1821E+02
     -2.755  0.3891E+01  0.1833E+02
     -2.721  0.4062E+01  0.1846E+02
     -2.687  0.3734E+01  0.1859E+02
     -2.654  0.3495E+01  0.1871E+02
     -2.620  0.3373E+01  0.1883E+02
     -2.587  0.3255E+01  0.1894E+02
     -2.553  0.3727E+01  0.1905E+02
     -2.519  0.3457E+01  0.1917E+02
     -2.486  0.3308E+01  0.1930E+02
     -2.452  0.3230E+01  0.1941E+02
     -2.418  0.5475E+01  0.1954E+02
     -2.385  0.4285E+01  0.1970E+02
     -2.351  0.5115E+01  0.1985E+02
     -2.318  0.5885E+01  0.2007E+02
     -2.284  0.6025E+01  0.2027E+02
     -2.250  0.4553E+01  0.2044E+02
     -2.217  0.3363E+01  0.2057E+02
     -2.183  0.3017E+01  0.2068E+02
     -2.150  0.2671E+01  0.2077E+02
     -2.116  0.2425E+01  0.2086E+02
     -2.082  0.2386E+01  0.2094E+02
     -2.049  0.2336E+01  0.2102E+02
     -2.015  0.2959E+01  0.2111E+02
     -1.981  0.3350E+01  0.2121E+02
     -1.948  0.3870E+01  0.2134E+02
     -1.914  0.4131E+01  0.2147E+02
     -1.881  0.4360E+01  0.2162E+02
     -1.847  0.3852E+01  0.2175E+02
     -1.813  0.3624E+01  0.2188E+02
     -1.780  0.3455E+01  0.2200E+02
     -1.746  0.5235E+01  0.2214E+02
     -1.713  0.2830E+01  0.2225E+02
     -1.679  0.2700E+01  0.2235E+02
     -1.645  0.2305E+01  0.2244E+02
     -1.612  0.1803E+01  0.2250E+02
     -1.578  0.1932E+01  0.2256E+02
     -1.544  0.2074E+01  0.2263E+02
     -1.511  0.2513E+01  0.2271E+02
     -1.477  0.2980E+01  0.2280E+02
     -1.444  0.2935E+01  0.2290E+02
     -1.410  0.2890E+01  0.2299E+02
     -1.376  0.3536E+01  0.2309E+02
     -1.343  0.3333E+01  0.2321E+02
     -1.309  0.2347E+01  0.2330E+02
     -1.275  0.3292E+01  0.2338E+02
     -1.242  0.1270E+01  0.2344E+02
     -1.208  0.3024E+01  0.2352E+02
     -1.175  0.2502E+01  0.2363E+02
     -1.141  0.2849E+01  0.2372E+02
     -1.107  0.2861E+01  0.2382E+02
     -1.074  0.2704E+01  0.2391E+02
     -1.040  0.2560E+01  0.2400E+02
     -1.007  0.2434E+01  0.2409E+02
     -0.973  0.2330E+01  0.2417E+02
     -0.939  0.2448E+01  0.2425E+02
     -0.906  0.2766E+01  0.2433E+02
     -0.872  0.3102E+01  0.2443E+02
     -0.838  0.2921E+01  0.2454E+02
     -0.805  0.2397E+01  0.2464E+02
     -0.771  0.2400E+01  0.2472E+02
     -0.738  0.2403E+01  0.2480E+02
     -0.704  0.2397E+01  0.2488E+02
     -0.670  0.2378E+01  0.2496E+02
     -0.637  0.2358E+01  0.2504E+02
     -0.603  0.2340E+01  0.2512E+02
     -0.570  0.2339E+01  0.2520E+02
     -0.536  0.2331E+01  0.2527E+02
     -0.502  0.2332E+01  0.2535E+02
     -0.469  0.2328E+01  0.2543E+02
     -0.435  0.2322E+01  0.2551E+02
     -0.401  0.2804E+01  0.2559E+02
     -0.368  0.2560E+01  0.2568E+02
     -0.334  0.2360E+01  0.2576E+02
     -0.301  0.2404E+01  0.2584E+02
     -0.267  0.2448E+01  0.2593E+02
     -0.233  0.2494E+01  0.2601E+02
     -0.200  0.2179E+01  0.2609E+02
     -0.166  0.2202E+01  0.2616E+02
     -0.133  0.2222E+01  0.2623E+02
     -0.099  0.2242E+01  0.2631E+02
     -0.065  0.2262E+01  0.2638E+02
     -0.032  0.2252E+01  0.2646E+02
      0.002  0.2239E+01  0.2654E+02
      0.036  0.2226E+01  0.2661E+02
      0.069  0.2205E+01  0.2669E+02
      0.103  0.2188E+01  0.2676E+02
      0.136  0.2171E+01  0.2683E+02
      0.170  0.2440E+01  0.2691E+02
      0.204  0.2401E+01  0.2699E+02
      0.237  0.2337E+01  0.2707E+02
      0.271  0.2272E+01  0.2714E+02
      0.304  0.2223E+01  0.2722E+02
      0.338  0.2239E+01  0.2729E+02
      0.372  0.2255E+01  0.2737E+02
      0.405  0.2276E+01  0.2745E+02
      0.439  0.2305E+01  0.2752E+02
      0.473  0.2157E+01  0.2760E+02
      0.506  0.2197E+01  0.2767E+02
      0.540  0.2175E+01  0.2775E+02
      0.573  0.2154E+01  0.2782E+02
      0.607  0.2134E+01  0.2789E+02
      0.641  0.2114E+01  0.2796E+02
      0.674  0.2100E+01  0.2803E+02
      0.708  0.2104E+01  0.2811E+02
      0.742  0.2122E+01  0.2818E+02
      0.775  0.2168E+01  0.2825E+02
      0.809  0.2160E+01  0.2832E+02
      0.842  0.2319E+01  0.2840E+02
      0.876  0.2260E+01  0.2847E+02
      0.910  0.2238E+01  0.2855E+02
      0.943  0.2276E+01  0.2862E+02
      0.977  0.2186E+01  0.2870E+02
      1.010  0.2303E+01  0.2877E+02
      1.044  0.2104E+01  0.2885E+02
      1.078  0.1866E+01  0.2892E+02
      1.111  0.1431E+01  0.2897E+02
      1.145  0.1457E+01  0.2902E+02
      1.179  0.1485E+01  0.2907E+02
      1.212  0.1364E+01  0.2912E+02
      1.246  0.1375E+01  0.2916E+02
      1.279  0.1387E+01  0.2921E+02
      1.313  0.1399E+01  0.2926E+02
      1.347  0.1412E+01  0.2931E+02
      1.380  0.1427E+01  0.2935E+02
      1.414  0.1443E+01  0.2940E+02
      1.447  0.1462E+01  0.2945E+02
      1.481  0.1712E+01  0.2950E+02
      1.515  0.1706E+01  0.2956E+02
      1.548  0.1701E+01  0.2961E+02
      1.582  0.1695E+01  0.2967E+02
      1.616  0.1693E+01  0.2973E+02
      1.649  0.1749E+01  0.2979E+02
      1.683  0.1827E+01  0.2985E+02
      1.716  0.1906E+01  0.2991E+02
      1.750  0.1996E+01  0.2997E+02
      1.784  0.2024E+01  0.3004E+02
      1.817  0.2051E+01  0.3011E+02
      1.851  0.2113E+01  0.3018E+02
      1.884  0.2375E+01  0.3026E+02
      1.918  0.2382E+01  0.3039E+02
      1.952  0.2073E+01  0.3046E+02
      1.985  0.1765E+01  0.3053E+02
      2.019  0.1819E+01  0.3059E+02
      2.053  0.1902E+01  0.3065E+02
      2.086  0.1585E+01  0.3070E+02
      2.120  0.1652E+01  0.3076E+02
      2.153  0.1543E+01  0.3081E+02
      2.187  0.1434E+01  0.3086E+02
      2.221  0.1325E+01  0.3091E+02
      2.254  0.1249E+01  0.3095E+02
      2.288  0.1229E+01  0.3099E+02
      2.321  0.1209E+01  0.3103E+02
      2.355  0.1188E+01  0.3107E+02
      2.389  0.1168E+01  0.3111E+02
      2.422  0.1028E+01  0.3115E+02
      2.456  0.1029E+01  0.3118E+02
      2.490  0.1030E+01  0.3122E+02
      2.523  0.1011E+01  0.3125E+02
      2.557  0.9804E+00  0.3128E+02
      2.590  0.9443E+00  0.3132E+02
      2.624  0.9002E+00  0.3135E+02
      2.658  0.8459E+00  0.3138E+02
      2.691  0.8225E+00  0.3141E+02
      2.725  0.8053E+00  0.3143E+02
      2.759  0.7880E+00  0.3146E+02
      2.792  0.7708E+00  0.3149E+02
      2.826  0.7535E+00  0.3151E+02
      2.859  0.7363E+00  0.3154E+02
      2.893  0.6441E+00  0.3156E+02
      2.927  0.6383E+00  0.3158E+02
      2.960  0.6324E+00  0.3160E+02
      2.994  0.6265E+00  0.3162E+02
      3.027  0.6207E+00  0.3165E+02
      3.061  0.6117E+00  0.3167E+02
      3.095  0.5888E+00  0.3169E+02
      3.128  0.5659E+00  0.3171E+02
      3.162  0.5380E+00  0.3172E+02
      3.196  0.5072E+00  0.3174E+02
      3.229  0.4765E+00  0.3176E+02
      3.263  0.4539E+00  0.3177E+02
      3.296  0.4432E+00  0.3179E+02
      3.330  0.4324E+00  0.3180E+02
      3.364  0.4217E+00  0.3182E+02
      3.397  0.4110E+00  0.3183E+02
      3.431  0.4002E+00  0.3185E+02
      3.464  0.3895E+00  0.3186E+02
      3.498  0.3788E+00  0.3187E+02
      3.532  0.3680E+00  0.3188E+02
      3.565  0.2992E+00  0.3189E+02
      3.599  0.2920E+00  0.3190E+02
      3.633  0.2847E+00  0.3191E+02
      3.666  0.2758E+00  0.3192E+02
      3.700  0.2618E+00  0.3193E+02
      3.733  0.2478E+00  0.3194E+02
      3.767  0.2338E+00  0.3195E+02
      3.801  0.2198E+00  0.3196E+02
      3.834  0.2058E+00  0.3196E+02
      3.868  0.1918E+00  0.3197E+02
      3.901  0.1778E+00  0.3198E+02
      3.935  0.1638E+00  0.3198E+02
      3.969  0.1498E+00  0.3199E+02
      4.002  0.0000E+00  0.3200E+02
      4.036  0.0000E+00  0.3200E+02
      4.070  0.0000E+00  0.3200E+02
      4.103  0.0000E+00  0.3200E+02
      4.137  0.0000E+00  0.3200E+02
      4.170  0.0000E+00  0.3200E+02
      4.204  0.0000E+00  0.3200E+02
      4.238  0.0000E+00  0.3200E+02
      4.271  0.0000E+00  0.3200E+02
      4.305  0.0000E+00  0.3200E+02
      4.339  0.0000E+00  0.3200E+02
      4.372  0.0000E+00  0.3200E+02
      4.406  0.0000E+00  0.3200E+02
      4.439  0.0000E+00  0.3200E+02
      4.473  0.0000E+00  0.3200E+02
      4.507  0.0000E+00  0.3200E+02
      4.540  0.0000E+00  0.3200E+02
      4.574  0.1467E+00  0.3201E+02
      4.607  0.1620E+00  0.3202E+02
      4.641  0.1772E+00  0.3202E+02
      4.675  0.1924E+00  0.3203E+02
      4.708  0.2076E+00  0.3203E+02
      4.742  0.2228E+00  0.3204E+02
      4.776  0.2380E+00  0.3205E+02
      4.809  0.2532E+00  0.3206E+02
      4.843  0.2685E+00  0.3207E+02
      4.876  0.2837E+00  0.3208E+02
      4.910  0.2941E+00  0.3208E+02
      4.944  0.2995E+00  0.3209E+02
      4.977  0.3049E+00  0.3211E+02
      5.011  0.3939E+00  0.3212E+02
      5.044  0.4043E+00  0.3213E+02
      5.078  0.4148E+00  0.3214E+02
      5.112  0.4252E+00  0.3216E+02
      5.145  0.4357E+00  0.3217E+02
      5.179  0.4461E+00  0.3219E+02
      5.213  0.4566E+00  0.3220E+02
      5.246  0.4670E+00  0.3222E+02
      5.280  0.5039E+00  0.3223E+02
      5.313  0.5451E+00  0.3225E+02
      5.347  0.5864E+00  0.3227E+02
      5.381  0.6276E+00  0.3229E+02
      5.414  0.6593E+00  0.3231E+02
      5.448  0.6807E+00  0.3233E+02
      5.481  0.6798E+00  0.3236E+02
      5.515  0.6720E+00  0.3238E+02
      5.549  0.6643E+00  0.3240E+02
      5.582  0.8306E+00  0.3243E+02
      5.616  0.8384E+00  0.3246E+02
      5.650  0.8462E+00  0.3249E+02
      5.683  0.8541E+00  0.3251E+02
      5.717  0.8914E+00  0.3254E+02
      5.750  0.9857E+00  0.3258E+02
      5.784  0.1080E+01  0.3261E+02
      5.818  0.1174E+01  0.3265E+02
      5.851  0.1269E+01  0.3269E+02
      5.885  0.1363E+01  0.3273E+02
      5.918  0.1527E+01  0.3278E+02
      5.952  0.1295E+01  0.3283E+02
      5.986  0.1452E+01  0.3287E+02
      6.019  0.1671E+01  0.3293E+02
      6.053  0.1891E+01  0.3299E+02
      6.087  0.2306E+01  0.3308E+02
      6.120  0.3748E+01  0.3317E+02
      6.154  0.2377E+01  0.3330E+02
      6.187  0.2236E+01  0.3338E+02
      6.221  0.2094E+01  0.3345E+02
      6.255  0.1984E+01  0.3352E+02
      6.288  0.1919E+01  0.3358E+02
      6.322  0.1839E+01  0.3365E+02
      6.356  0.1761E+01  0.3371E+02
      6.389  0.1686E+01  0.3377E+02
      6.423  0.1618E+01  0.3382E+02
      6.456  0.1559E+01  0.3388E+02
      6.490  0.1512E+01  0.3393E+02
      6.524  0.1484E+01  0.3398E+02
      6.557  0.1464E+01  0.3403E+02
      6.591  0.1445E+01  0.3408E+02
      6.624  0.1429E+01  0.3412E+02
      6.658  0.1414E+01  0.3417E+02
      6.692  0.1400E+01  0.3422E+02
      6.725  0.1263E+01  0.3426E+02
      6.759  0.1249E+01  0.3431E+02
      6.793  0.1240E+01  0.3435E+02
      6.826  0.1232E+01  0.3439E+02
      6.860  0.1224E+01  0.3443E+02
      6.893  0.1216E+01  0.3447E+02
      6.927  0.1208E+01  0.3451E+02
      6.961  0.1200E+01  0.3455E+02
      6.994  0.1844E+01  0.3460E+02
      7.028  0.2049E+01  0.3467E+02
      7.061  0.2270E+01  0.3474E+02
      7.095  0.2203E+01  0.3482E+02
      7.129  0.2138E+01  0.3489E+02
      7.162  0.2098E+01  0.3496E+02
      7.196  0.1936E+01  0.3503E+02
      7.230  0.1922E+01  0.3510E+02
      7.263  0.1919E+01  0.3516E+02
      7.297  0.1931E+01  0.3523E+02
      7.330  0.1944E+01  0.3529E+02
      7.364  0.1965E+01  0.3536E+02
      7.398  0.1972E+01  0.3542E+02
      7.431  0.1977E+01  0.3549E+02
      7.465  0.1988E+01  0.3556E+02
      7.498  0.2003E+01  0.3562E+02
      7.532  0.2019E+01  0.3569E+02
      7.566  0.2003E+01  0.3576E+02
      7.599  0.2010E+01  0.3583E+02
      7.633  0.1996E+01  0.3589E+02
      7.667  0.1969E+01  0.3596E+02
      7.700  0.1861E+01  0.3602E+02
      7.734  0.1845E+01  0.3609E+02
      7.767  0.1842E+01  0.3615E+02
      7.801  0.1829E+01  0.3621E+02
      7.835  0.1808E+01  0.3627E+02
      7.868  0.1811E+01  0.3633E+02
      7.902  0.1814E+01  0.3639E+02
      7.936  0.1854E+01  0.3645E+02
      7.969  0.1887E+01  0.3652E+02
      8.003  0.1878E+01  0.3658E+02
      8.036  0.1868E+01  0.3664E+02
      8.070  0.1859E+01  0.3671E+02
      8.104  0.1831E+01  0.3677E+02
      8.137  0.1887E+01  0.3683E+02
      8.171  0.1879E+01  0.3689E+02
      8.204  0.1889E+01  0.3696E+02
      8.238  0.1907E+01  0.3702E+02
      8.272  0.1924E+01  0.3709E+02
      8.305  0.1933E+01  0.3715E+02
      8.339  0.1941E+01  0.3722E+02
      8.373  0.1900E+01  0.3728E+02
      8.406  0.1847E+01  0.3734E+02
      8.440  0.1765E+01  0.3740E+02
      8.473  0.1741E+01  0.3746E+02
      8.507  0.1742E+01  0.3752E+02
      8.541  0.1744E+01  0.3758E+02
      8.574  0.1754E+01  0.3764E+02
      8.608  0.1764E+01  0.3770E+02
      8.641  0.1774E+01  0.3776E+02
      8.675  0.1784E+01  0.3782E+02
      8.709  0.2101E+01  0.3789E+02
      8.742  0.1894E+01  0.3795E+02
      8.776  0.1788E+01  0.3802E+02
      8.810  0.1674E+01  0.3807E+02
      8.843  0.1559E+01  0.3813E+02
      8.877  0.1466E+01  0.3818E+02
      8.910  0.1411E+01  0.3823E+02
      8.944  0.1408E+01  0.3827E+02
      8.978  0.1387E+01  0.3832E+02
      9.011  0.1703E+01  0.3837E+02
      9.045  0.2103E+01  0.3844E+02
      9.078  0.1766E+01  0.3849E+02
      9.112  0.1886E+01  0.3856E+02
      9.146  0.2005E+01  0.3862E+02
      9.179  0.1612E+01  0.3868E+02
      9.213  0.1599E+01  0.3874E+02
      9.247  0.1918E+01  0.3882E+02
      9.280  0.1511E+01  0.3887E+02
      9.314  0.1541E+01  0.3892E+02
      9.347  0.1554E+01  0.3897E+02
      9.381  0.1576E+01  0.3902E+02
      9.415  0.1606E+01  0.3908E+02
      9.448  0.1668E+01  0.3913E+02
      9.482  0.1731E+01  0.3919E+02
      9.515  0.1824E+01  0.3925E+02
      9.549  0.1990E+01  0.3931E+02
      9.583  0.2181E+01  0.3938E+02
      9.616  0.2372E+01  0.3946E+02
      9.650  0.2563E+01  0.3954E+02
      9.684  0.2753E+01  0.3963E+02
      9.717  0.3405E+01  0.3977E+02
      9.751  0.4079E+01  0.3989E+02
      9.784  0.1015E+01  0.3995E+02
      9.818  0.6288E+00  0.3998E+02
      9.852  0.2422E+00  0.4000E+02
      9.885  0.0000E+00  0.4000E+02
      9.919  0.0000E+00  0.4000E+02
      9.953  0.0000E+00  0.4000E+02
      9.986  0.4956E-01  0.4000E+02
     10.020  0.1097E+00  0.4000E+02
     10.053  0.1979E+00  0.4001E+02
     10.087  0.7168E+00  0.4002E+02