    8    8    1    1
  0.1000483E+02  0.4904166E-09  0.4904166E-09  0.3842748E-09  0.5000000E-15
  1.000000000000000E-004
  CAR 
 NAME                                    
   32   73   24
 
  0.3742002E-15  0.3742002E-15  0.1262379E-14  0.3906250E-02
   1      -15.646870
   2      -10.290557
   3      -10.290436
   4      -10.290436
   5       -9.292474
   6       -9.292234
   7       -9.292234
   8       -3.291168
   9       -2.349383
  10       -2.349383
  11       -2.348889
  12        1.097976
  13        1.098719
  14        1.902982
  15        1.902983
  16        1.903010
  17        6.104009
  18        6.104355
  19        6.104355
  20        6.981902
  21       11.508696
  22       11.508698
  23       11.509351
  24       12.503142
 
  0.6250000E-01  0.3747003E-15  0.1262379E-14  0.1562500E-01
   1      -15.623401
   2      -10.633722
   3      -10.381606
   4      -10.381487
   5       -9.162579
   6       -9.162337
   7       -8.914120
   8       -3.263637
   9       -2.423089
  10       -2.422599
  11       -2.326050
  12        1.001124
  13        1.046221
  14        1.762906
  15        1.887921
  16        1.887946
  17        6.141444
  18        6.141785
  19        6.280184
  20        7.011735
  21       11.519318
  22       11.616775
  23       11.617433
  24       12.519832
 
  0.1250000E+00  0.3747003E-15  0.1262379E-14  0.1562500E-01
   1      -15.552940
   2      -11.206092
   3      -10.571883
   4      -10.571773
   5       -8.856361
   6       -8.856112
   7       -8.237585
   8       -3.181139
   9       -2.636090
  10       -2.635609
  11       -2.256300
  12        0.717709
  13        0.896805
  14        1.400390
  15        1.846111
  16        1.846132
  17        6.248075
  18        6.248400
  19        6.749299
  20        7.101291
  21       11.547938
  22       11.931652
  23       11.932310
  24       12.548659
 
  0.1875000E+00  0.3747003E-15  0.1262379E-14  0.1562500E-01
   1      -15.435651
   2      -11.785242
   3      -10.772818
   4      -10.772722
   5       -8.464803
   6       -8.464542
   7       -7.486374
   8       -3.043994
   9       -2.966609
  10       -2.966144
  11       -2.140935
  12        0.271450
  13        0.666715
  14        0.918520
  15        1.786216
  16        1.786232
  17        6.407896
  18        6.408193
  19        7.250693
  20        7.405983
  21       11.563344
  22       12.081855
  23       12.424910
  24       12.425558
 
  0.2500000E+00  0.3608225E-15  0.1262379E-14  0.1562500E-01
   1      -15.271739
   2      -12.337510
   3      -10.951485
   4      -10.951406
   5       -8.025535
   6       -8.025262
   7       -6.696453
   8       -3.384678
   9       -3.384237
  10       -2.852752
  11       -1.981335
  12       -0.307016
  13        0.378030
  14        0.391609
  15        1.719226
  16        1.719238
  17        6.597672
  18        6.597931
  19        7.459998
  20        8.171855
  21       11.211165
  22       11.786624
  23       12.572958
  24       12.978644
 
  0.3125000E+00  0.3608225E-15  0.1262379E-14  0.1562500E-01
   1      -15.061415
   2      -12.853779
   3      -11.095950
   4      -11.095891
   5       -7.559725
   6       -7.559443
   7       -5.880423
   8       -3.856120
   9       -3.855710
  10       -2.608238
  11       -1.779596
  12       -0.985969
  13       -0.138822
  14        0.053258
  15        1.655739
  16        1.655746
  17        6.789983
  18        6.790193
  19        7.729147
  20        8.999489
  21       10.571066
  22       11.852884
  23       12.531961
  24       12.902131
 
  0.3750000E+00  0.4440892E-15  0.1262379E-14  0.1562500E-01
   1      -14.805015
   2      -13.330192
   3      -11.201356
   4      -11.201316
   5       -7.092943
   6       -7.092670
   7       -5.046969
   8       -4.339602
   9       -4.339243
  10       -2.311633
  11       -1.736887
  12       -1.538676
  13       -0.650213
  14       -0.287730
  15        1.604329
  16        1.604334
  17        6.955738
  18        6.955886
  19        8.058017
  20        9.858481
  21        9.958439
  22       11.963120
  23       12.452716
  24       13.191879
 
  0.4375000E+00  0.3885781E-15  0.1262379E-14  0.1562500E-01
   1      -14.503028
   2      -13.764725
   3      -11.265302
   4      -11.265282
   5       -6.683762
   6       -6.683555
   7       -4.763932
   8       -4.763681
   9       -4.204680
  10       -2.535852
  11       -1.964618
  12       -1.262611
  13       -1.129725
  14       -0.628655
  15        1.571109
  16        1.571112
  17        7.068439
  18        7.068516
  19        8.446094
  20        9.397554
  21       10.726468
  22       12.088662
  23       12.344413
  24       12.411862
 
  0.5000000E+00  0.3330669E-15  0.1262379E-14  0.7812500E-02
   1      -14.156012
   2      -14.156008
   3      -11.286732
   4      -11.286730
   5       -6.493605
   6       -6.493603
   7       -4.959810
   8       -4.959808
   9       -3.363570
  10       -3.363567
  11       -1.569527
  12       -1.569524
  13       -0.956843
  14       -0.956838
  15        1.559619
  16        1.559621
  17        7.108430
  18        7.108431
  19        8.892899
  20        8.892901
  21       11.583575
  22       11.583576
  23       12.219229
  24       12.219232
 
  0.6250000E-01  0.6250000E-01  0.1262379E-14  0.7812500E-02
   1      -15.576420
   2      -10.898501
   3      -10.898501
   4      -10.230365
   5       -9.232135
   6       -8.576005
   7       -8.576005
   8       -3.208621
   9       -2.659141
  10       -2.376393
  11       -2.376393
  12        0.814122
  13        0.942149
  14        1.623218
  15        1.623218
  16        1.987837
  17        6.072043
  18        6.477130
  19        6.477130
  20        7.071434
  21       11.637095
  22       11.637095
  23       11.922092
  24       12.550211
 
  0.1250000E+00  0.6250000E-01  0.1262379E-14  0.1562500E-01
   1      -15.482546
   2      -11.481840
   3      -11.142261
   4      -10.259996
   5       -9.044423
   6       -8.183334
   7       -7.854918
   8       -3.098797
   9       -3.013798
  10       -2.565723
  11       -2.283505
  12        0.457227
  13        0.744370
  14        1.188630
  15        1.480701
  16        2.056506
  17        6.072846
  18        6.715963
  19        7.051420
  20        7.190937
  21       11.666194
  22       11.956495
  23       12.409372
  24       12.597719
 
  0.1875000E+00  0.6250000E-01  0.1262379E-14  0.1562500E-01
   1      -15.341950
   2      -12.049012
   3      -11.352767
   4      -10.386606
   5       -8.686323
   6       -7.752051
   7       -7.083502
   8       -3.457503
   9       -2.934594
  10       -2.871645
  11       -2.145476
  12       -0.045739
  13        0.475412
  14        0.676996
  15        1.346301
  16        2.094418
  17        6.133967
  18        6.975874
  19        7.370352
  20        7.768364
  21       11.530934
  22       11.908413
  23       12.384792
  24       12.632478
 
  0.2500000E+00  0.6250000E-01  0.1262379E-14  0.1562500E-01
   1      -15.154842
   2      -12.583715
   3      -11.524593
   4      -10.522623
   5       -8.251651
   6       -7.294549
   7       -6.281025
   8       -3.958279
   9       -3.262778
  10       -2.716694
  11       -1.963973
  12       -0.665589
  13        0.144521
  14        0.159546
  15        1.229001
  16        2.107977
  17        6.234874
  18        7.232912
  19        7.609672
  20        8.566741
  21       10.918345
  22       11.910668
  23       12.326701
  24       12.629152
 
  0.3125000E+00  0.6250000E-01  0.1262379E-14  0.1562500E-01
   1      -14.921458
   2      -13.080200
   3      -11.655171
   4      -10.635721
   5       -7.785965
   6       -6.827561
   7       -5.457419
   8       -4.481221
   9       -3.701226
  10       -2.446080
  11       -1.741413
  12       -1.373045
  13       -0.378389
  14       -0.181071
  15        1.135574
  16        2.106683
  17        6.348008
  18        7.460702
  19        7.908839
  20        9.409456
  21       10.282577
  22       12.008505
  23       12.166506
  24       12.581117
 
  0.3750000E+00  0.6250000E-01  0.1262379E-14  0.1562500E-01
   1      -14.642273
   2      -13.535725
   3      -11.742858
   4      -10.714644
   5       -7.333515
   6       -6.385996
   7       -4.977112
   8       -4.621275
   9       -4.134148
  10       -2.142085
  11       -2.124176
  12       -1.481150
  13       -0.874920
  14       -0.528145
  15        1.070807
  16        2.099897
  17        6.444555
  18        7.632416
  19        8.267426
  20        9.694338
  21       10.270904
  22       12.127929
  23       12.494642
  24       12.758830
 
  0.4375000E+00  0.6250000E-01  0.1262379E-14  0.1562500E-01
   1      -14.317765
   2      -13.948619
   3      -11.786895
   4      -10.754933
   5       -6.998524
   6       -6.066667
   7       -5.335597
   8       -4.452288
   9       -3.782034
  10       -2.950954
  11       -1.752940
  12       -1.335169
  13       -1.187753
  14       -0.867348
  15        1.037679
  16        2.094660
  17        6.499899
  18        7.725225
  19        8.685054
  20        9.161044
  21       11.130683
  22       11.970119
  23       12.255625
  24       12.381742
 
  0.5000000E+00  0.6250000E-01  0.1262379E-14  0.1562500E-01
   1      -14.317775
   2      -13.948607
   3      -11.786905
   4      -10.754923
   5       -6.998405
   6       -6.066794
   7       -5.335738
   8       -4.452138
   9       -3.782039
  10       -2.950961
  11       -1.752945
  12       -1.335163
  13       -1.187748
  14       -0.867341
  15        1.037678
  16        2.094656
  17        6.499939
  18        7.725187
  19        8.685043
  20        9.161056
  21       11.130701
  22       11.970097
  23       12.255546
  24       12.381828
 
 -0.4375000E+00  0.6250000E-01  0.1262379E-14  0.1562500E-01
   1      -14.642282
   2      -13.535713
   3      -11.742887
   4      -10.714613
   5       -7.333273
   6       -6.386257
   7       -4.977417
   8       -4.621287
   9       -4.133820
  10       -2.142112
  11       -2.124181
  12       -1.481139
  13       -0.874914
  14       -0.528118
  15        1.070805
  16        2.099888
  17        6.444672
  18        7.632304
  19        8.267417
  20        9.694351
  21       10.270918
  22       12.079001
  23       12.127877
  24       12.494859
 
 -0.3750000E+00  0.6250000E-01  0.1262379E-14  0.1562500E-01
   1      -14.921465
   2      -13.080186
   3      -11.655219
   4      -10.635670
   5       -7.785696
   6       -6.827853
   7       -5.457436
   8       -4.481593
   9       -3.700823
  10       -2.446084
  11       -1.741400
  12       -1.373103
  13       -0.378383
  14       -0.181013
  15        1.135572
  16        2.106666
  17        6.348194
  18        7.460525
  19        7.908831
  20        9.409467
  21       10.282591
  22       12.008459
  23       12.163656
  24       12.581248
 
 -0.3125000E+00  0.6250000E-01  0.1262379E-14  0.1562500E-01
   1      -15.154848
   2      -12.583699
   3      -11.524660
   4      -10.522553
   5       -8.251382
   6       -7.294839
   7       -6.281044
   8       -3.958691
   9       -3.262336
  10       -2.716697
  11       -1.963960
  12       -0.665699
  13        0.144527
  14        0.159657
  15        1.228999
  16        2.107955
  17        6.235117
  18        7.232683
  19        7.609666
  20        8.566747
  21       10.918358
  22       11.910634
  23       12.326079
  24       12.629317
 
 -0.2500000E+00  0.6250000E-01  0.1262379E-14  0.1562500E-01
   1      -15.341954
   2      -12.048996
   3      -11.352852
   4      -10.386518
   5       -8.686063
   6       -7.752329
   7       -7.083522
   8       -3.457941
   9       -2.934597
  10       -2.871177
  11       -2.145465
  12       -0.045932
  13        0.475608
  14        0.677001
  15        1.346302
  16        2.094391
  17        6.134254
  18        6.975604
  19        7.370347
  20        7.768368
  21       11.530929
  22       11.908422
  23       12.387153
  24       12.632692
 
 -0.1875000E+00  0.6250000E-01  0.1262379E-14  0.1562500E-01
   1      -15.482550
   2      -11.481823
   3      -11.142363
   4      -10.259894
   5       -9.044172
   6       -8.183596
   7       -7.854939
   8       -3.098799
   9       -3.014259
  10       -2.565239
  11       -2.283497
  12        0.456898
  13        0.744703
  14        1.188635
  15        1.480706
  16        2.056477
  17        6.073164
  18        6.715662
  19        7.051422
  20        7.190934
  21       11.666169
  22       11.957120
  23       12.408703
  24       12.598068
 
 -0.1250000E+00  0.6250000E-01  0.1262379E-14  0.1562500E-01
   1      -15.576422
   2      -10.898619
   3      -10.898484
   4      -10.230247
   5       -9.231896
   6       -8.576251
   7       -8.576024
   8       -3.208622
   9       -2.659618
  10       -2.376388
  11       -2.375900
  12        0.813590
  13        0.942686
  14        1.623221
  15        1.623229
  16        1.987808
  17        6.072378
  18        6.476808
  19        6.477131
  20        7.071432
  21       11.637082
  22       11.637740
  23       11.921421
  24       12.548766
 
 -0.6250000E-01  0.6250000E-01  0.1262379E-14  0.7812500E-02
   1      -15.623402
   2      -10.633850
   3      -10.381476
   4      -10.381476
   5       -9.162349
   6       -9.162349
   7       -8.914353
   8       -3.263638
   9       -2.423088
  10       -2.423088
  11       -2.325556
  12        1.000574
  13        1.046773
  14        1.762924
  15        1.887922
  16        1.887922
  17        6.141785
  18        6.141785
  19        6.279848
  20        7.011734
  21       11.519970
  22       11.616770
  23       11.616773
  24       12.523003
 
  0.1250000E+00  0.1250000E+00  0.1262379E-14  0.7812500E-02
   1      -15.365342
   2      -11.719945
   3      -11.719945
   4      -10.049882
   5       -9.055228
   6       -7.436784
   7       -7.436784
   8       -3.481947
   9       -2.961907
  10       -2.449207
  11       -2.449207
  12        0.057866
  13        0.493373
  14        0.996851
  15        0.996851
  16        2.241767
  17        5.956816
  18        7.340507
  19        7.367328
  20        7.367328
  21       11.902384
  22       11.902454
  23       12.241307
  24       12.241873
 
  0.1875000E+00  0.1250000E+00  0.1262379E-14  0.1562500E-01
   1      -15.201569
   2      -12.271073
   3      -11.917360
   4      -10.017469
   5       -8.817101
   6       -6.991730
   7       -6.652898
   8       -4.009399
   9       -2.771024
  10       -2.730079
  11       -2.287748
  12       -0.465155
  13        0.175518
  14        0.469145
  15        0.831918
  16        2.391992
  17        5.898578
  18        7.550053
  19        7.677707
  20        8.123632
  21       11.327380
  22       11.798505
  23       12.170230
  24       12.605970
 
  0.2500000E+00  0.1250000E+00  0.1262379E-14  0.1562500E-01
   1      -14.991372
   2      -12.786425
   3      -12.072245
   4      -10.079943
   5       -8.421611
   6       -6.531832
   7       -5.844747
   8       -4.564815
   9       -3.092483
  10       -2.526960
  11       -2.083144
  12       -1.092742
  13       -0.177381
  14       -0.061274
  15        0.698945
  16        2.502707
  17        5.887358
  18        7.819572
  19        7.959683
  20        8.937837
  21       10.667208
  22       11.611136
  23       12.256567
  24       12.817369
 
  0.3125000E+00  0.1250000E+00  0.1262379E-14  0.1562500E-01
   1      -14.735244
   2      -13.262221
   3      -12.183575
   4      -10.151657
   5       -7.974669
   6       -6.079724
   7       -5.110648
   8       -5.021688
   9       -3.492232
  10       -2.230918
  11       -1.837936
  12       -1.801452
  13       -0.572224
  14       -0.541437
  15        0.601555
  16        2.575470
  17        5.904102
  18        8.148686
  19        8.188020
  20        9.780068
  21       10.051307
  22       11.469422
  23       12.367966
  24       12.791122
 
  0.3750000E+00  0.1250000E+00  0.1262379E-14  0.1562500E-01
   1      -14.433559
   2      -13.696108
   3      -12.250674
   4      -10.201300
   5       -7.564798
   6       -5.691641
   7       -5.577828
   8       -4.193272
   9       -3.856033
  10       -2.567699
  11       -1.884542
  12       -1.555585
  13       -1.051064
  14       -0.899869
  15        0.542200
  16        2.615566
  17        5.926454
  18        8.337846
  19        8.537092
  20        9.489440
  21       10.628345
  22       11.391779
  23       12.269047
  24       12.489456
 
  0.4375000E+00  0.1250000E+00  0.1262379E-14  0.1562500E-01
   1      -14.086931
   2      -14.086909
   3      -12.273069
   4      -10.218649
   5       -7.370101
   6       -5.791553
   7       -5.515467
   8       -4.025284
   9       -3.370694
  10       -3.370685
  11       -1.490156
  12       -1.490145
  13       -1.240783
  14       -1.240772
  15        0.522264
  16        2.628254
  17        5.936240
  18        8.390112
  19        8.984243
  20        8.984266
  21       11.361352
  22       11.463846
  23       11.463888
  24       12.609604
 
  0.5000000E+00  0.1250000E+00  0.1262379E-14  0.1562500E-01
   1      -14.433578
   2      -13.696084
   3      -12.250693
   4      -10.201279
   5       -7.564607
   6       -5.691863
   7       -5.578058
   8       -4.193286
   9       -3.855766
  10       -2.567743
  11       -1.884551
  12       -1.555576
  13       -1.051053
  14       -0.899823
  15        0.542197
  16        2.615552
  17        5.926536
  18        8.337770
  19        8.537072
  20        9.489465
  21       10.628379
  22       11.396692
  23       12.269006
  24       12.489327
 
 -0.4375000E+00  0.1250000E+00  0.1262379E-14  0.1562500E-01
   1      -14.735260
   2      -13.262194
   3      -12.183611
   4      -10.151616
   5       -7.974418
   6       -6.080020
   7       -5.110978
   8       -5.021715
   9       -3.491847
  10       -2.230927
  11       -1.837917
  12       -1.801553
  13       -0.572212
  14       -0.541333
  15        0.601549
  16        2.575445
  17        5.904261
  18        8.148669
  19        8.187876
  20        9.780093
  21       10.051335
  22       11.469306
  23       12.367862
  24       12.791397
 
 -0.3750000E+00  0.1250000E+00  0.1262379E-14  0.1562500E-01
   1      -14.991385
   2      -12.786396
   3      -12.072299
   4      -10.079883
   5       -8.421349
   6       -6.532138
   7       -5.844782
   8       -4.565192
   9       -3.092044
  10       -2.526968
  11       -2.083122
  12       -1.092932
  13       -0.177187
  14       -0.061262
  15        0.698937
  16        2.502674
  17        5.887580
  18        7.819558
  19        7.959483
  20        8.937855
  21       10.667237
  22       11.611074
  23       12.256487
  24       12.817697
 
 -0.3125000E+00  0.1250000E+00  0.1262379E-14  0.1562500E-01
   1      -15.201580
   2      -12.271042
   3      -11.917432
   4      -10.017388
   5       -8.816847
   6       -6.992028
   7       -6.652937
   8       -4.009808
   9       -2.771030
  10       -2.729610
  11       -2.287727
  12       -0.465472
  13        0.175843
  14        0.469157
  15        0.831909
  16        2.391956
  17        5.898848
  18        7.550042
  19        7.677462
  20        8.123644
  21       11.327406
  22       11.798440
  23       12.170179
  24       12.606534
 
 -0.2500000E+00  0.1250000E+00  0.1262379E-14  0.1562500E-01
   1      -15.365350
   2      -11.720035
   3      -11.719911
   4      -10.049773
   5       -9.054992
   6       -7.437066
   7       -7.436825
   8       -3.482381
   9       -2.961912
  10       -2.449189
  11       -2.448721
  12        0.057396
  13        0.493853
  14        0.996843
  15        0.996861
  16        2.241734
  17        5.957117
  18        7.340499
  19        7.367052
  20        7.367334
  21       11.902382
  22       11.902733
  23       12.241467
  24       12.241859
 
 -0.1875000E+00  0.1250000E+00  0.1262379E-14  0.1562500E-01
   1      -15.482552
   2      -11.481946
   3      -11.142226
   4      -10.259860
   5       -9.044207
   6       -8.183374
   7       -7.855181
   8       -3.098800
   9       -3.014254
  10       -2.565710
  11       -2.283011
  12        0.456637
  13        0.744970
  14        1.188625
  15        1.480709
  16        2.056480
  17        6.073165
  18        6.715965
  19        7.051120
  20        7.190932
  21       11.666798
  22       11.956455
  23       12.408665
  24       12.598180
 
 -0.1250000E+00  0.1250000E+00  0.1262379E-14  0.7812500E-02
   1      -15.552943
   2      -11.206214
   3      -10.571742
   4      -10.571742
   5       -8.856146
   6       -8.856146
   7       -8.237829
   8       -3.181141
   9       -2.636083
  10       -2.636083
  11       -2.255806
  12        0.717169
  13        0.897352
  14        1.400390
  15        1.846116
  16        1.846116
  17        6.248400
  18        6.248400
  19        6.748985
  20        7.101288
  21       11.548578
  22       11.931633
  23       11.931635
  24       12.549056
 
  0.1875000E+00  0.1875000E+00  0.1262379E-14  0.7812500E-02
   1      -15.014760
   2      -12.449978
   3      -12.449978
   4       -9.749452
   5       -8.779233
   6       -6.203885
   7       -6.203885
   8       -4.592447
   9       -2.553966
  10       -2.543008
  11       -2.543008
  12       -0.977778
  13       -0.197702
  14        0.298805
  15        0.298805
  16        2.663140
  17        5.705139
  18        7.789786
  19        8.452828
  20        8.452828
  21       11.111054
  22       11.111054
  23       12.684354
  24       12.684357
 
  0.2500000E+00  0.1875000E+00  0.1262379E-14  0.1562500E-01
   1      -14.781788
   2      -12.944901
   3      -12.584897
   4       -9.655890
   5       -8.512809
   6       -5.752475
   7       -5.399787
   8       -5.175113
   9       -2.874005
  10       -2.311961
  11       -2.284399
  12       -1.580189
  13       -0.600754
  14       -0.223518
  15        0.168775
  16        2.890112
  17        5.556595
  18        8.089440
  19        8.732960
  20        9.265059
  21       10.467451
  22       10.940849
  23       12.787490
  24       13.096968
 
  0.3125000E+00  0.1875000E+00  0.1262379E-14  0.1562500E-01
   1      -14.503140
   2      -13.399205
   3      -12.675149
   4       -9.657694
   5       -8.130952
   6       -5.710363
   7       -5.333213
   8       -4.589964
   9       -3.225786
  10       -2.262006
  11       -2.038993
  12       -1.963732
  13       -1.000555
  14       -0.718820
  15        0.081060
  16        3.054920
  17        5.455534
  18        8.448527
  19        8.939246
  20        9.877232
  21       10.089976
  22       10.825582
  23       12.459511
  24       12.899857
 
  0.3750000E+00  0.1875000E+00  0.1262379E-14  0.1562500E-01
   1      -14.179294
   2      -13.810996
   3      -12.720429
   4       -9.672225
   5       -7.818665
   6       -6.087709
   7       -5.037215
   8       -3.786541
   9       -3.492011
  10       -3.004411
  11       -1.726767
  12       -1.593884
  13       -1.378919
  14       -1.177601
  15        0.036895
  16        3.141906
  17        5.404242
  18        8.866651
  19        9.049259
  20        9.343177
  21       10.767576
  22       10.908488
  23       11.703778
  24       13.008888
 
  0.4375000E+00  0.1875000E+00  0.1262379E-14  0.1562500E-01
   1      -14.179324
   2      -13.810962
   3      -12.720438
   4       -9.672215
   5       -7.818558
   6       -6.087835
   7       -5.037349
   8       -3.786530
   9       -3.491855
  10       -3.004474
  11       -1.726789
  12       -1.593899
  13       -1.378845
  14       -1.177584
  15        0.036893
  16        3.141892
  17        5.404288
  18        8.866619
  19        9.049221
  20        9.343214
  21       10.767564
  22       10.908548
  23       11.703707
  24       13.008652
 
  0.5000000E+00  0.1875000E+00  0.1262379E-14  0.1562500E-01
   1      -14.503167
   2      -13.399166
   3      -12.675174
   4       -9.657663
   5       -8.130732
   6       -5.710639
   7       -5.333494
   8       -4.589986
   9       -3.225436
  10       -2.262151
  11       -2.038986
  12       -1.963746
  13       -1.000400
  14       -0.718803
  15        0.081053
  16        3.054886
  17        5.455665
  18        8.448499
  19        8.939137
  20        9.877273
  21       10.090024
  22       10.825551
  23       12.459425
  24       12.899667
 
 -0.4375000E+00  0.1875000E+00  0.1262379E-14  0.1562500E-01
   1      -14.781810
   2      -12.944860
   3      -12.584939
   4       -9.655835
   5       -8.512564
   6       -5.752793
   7       -5.399829
   8       -5.175453
   9       -2.873577
  10       -2.311940
  11       -2.284411
  12       -1.580449
  13       -0.600482
  14       -0.223500
  15        0.168765
  16        2.890068
  17        5.556792
  18        8.089416
  19        8.732789
  20        9.265095
  21       10.467496
  22       10.940800
  23       12.787331
  24       13.097483
 
 -0.3750000E+00  0.1875000E+00  0.1262379E-14  0.1562500E-01
   1      -15.014779
   2      -12.450038
   3      -12.449932
   4       -9.749358
   5       -8.779006
   6       -6.204202
   7       -6.203938
   8       -4.592824
   9       -2.553976
  10       -2.542982
  11       -2.542540
  12       -0.978172
  13       -0.197292
  14        0.298791
  15        0.298822
  16        2.663099
  17        5.705382
  18        7.789767
  19        8.452609
  20        8.452852
  21       11.110987
  22       11.111101
  23       12.684250
  24       12.684975
 
 -0.3125000E+00  0.1875000E+00  0.1262379E-14  0.1562500E-01
   1      -15.201583
   2      -12.271150
   3      -11.917311
   4      -10.017334
   5       -8.816903
   6       -6.991788
   7       -6.653201
   8       -4.009804
   9       -2.771032
  10       -2.730054
  11       -2.287261
  12       -0.465661
  13        0.176043
  14        0.469130
  15        0.831934
  16        2.391961
  17        5.898851
  18        7.550038
  19        7.677722
  20        8.123378
  21       11.327316
  22       11.798547
  23       12.170838
  24       12.605864
 
 -0.2500000E+00  0.1875000E+00  0.1262379E-14  0.1562500E-01
   1      -15.341960
   2      -12.049105
   3      -11.352716
   4      -10.386457
   5       -8.686129
   6       -7.752110
   7       -7.083786
   8       -3.457932
   9       -2.934600
  10       -2.871625
  11       -2.144980
  12       -0.046301
  13        0.475993
  14        0.676980
  15        1.346315
  16        2.094400
  17        6.134257
  18        6.975882
  19        7.370341
  20        7.768086
  21       11.531067
  22       11.908807
  23       12.385566
  24       12.633019
 
 -0.1875000E+00  0.1875000E+00  0.1262379E-14  0.7812500E-02
   1      -15.435657
   2      -11.785351
   3      -10.772671
   4      -10.772671
   5       -8.464598
   6       -8.464598
   7       -7.486638
   8       -3.043998
   9       -2.966596
  10       -2.966596
  11       -2.140440
  12        0.270926
  13        0.667253
  14        0.918506
  15        1.786226
  16        1.786226
  17        6.408196
  18        6.408196
  19        7.250687
  20        7.405690
  21       11.563886
  22       12.081835
  23       12.424874
  24       12.424880
 
  0.2500000E+00  0.2500000E+00  0.1262379E-14  0.7812500E-02
   1      -14.526332
   2      -13.058481
   3      -13.058481
   4       -9.329740
   5       -8.468924
   6       -5.752424
   7       -4.969238
   8       -4.969238
   9       -2.607326
  10       -2.607326
  11       -2.133235
  12       -1.990165
  13       -1.062134
  14       -0.340522
  15       -0.340522
  16        3.249057
  17        5.250870
  18        8.419045
  19        9.524955
  20        9.524955
  21       10.323160
  22       10.323160
  23       12.525567
  24       13.378476
 
  0.3125000E+00  0.2500000E+00  0.1262379E-14  0.1562500E-01
   1      -14.225524
   2      -13.490667
   3      -13.126780
   4       -9.182422
   5       -8.270441
   6       -6.226097
   7       -4.607635
   8       -4.196733
   9       -2.896212
  10       -2.759197
  11       -2.291985
  12       -1.645877
  13       -1.514064
  14       -0.817120
  15       -0.411166
  16        3.535975
  17        5.001522
  18        8.807897
  19        9.693397
  20        9.760831
  21       10.236083
  22       10.315643
  23       11.830321
  24       13.554319
 
  0.3750000E+00  0.2500000E+00  0.1262379E-14  0.1562500E-01
   1      -13.880036
   2      -13.879993
   3      -13.149507
   4       -9.151745
   5       -8.137671
   6       -6.432716
   7       -4.447497
   8       -3.453113
   9       -3.453021
  10       -3.033530
  11       -1.927303
  12       -1.927186
  13       -1.253806
  14       -1.253785
  15       -0.434788
  16        3.657338
  17        4.893772
  18        9.255397
  19        9.255444
  20        9.752038
  21       10.206984
  22       11.088762
  23       11.088854
  24       13.595153
 
  0.4375000E+00  0.2500000E+00  0.1262379E-14  0.1562500E-01
   1      -14.225561
   2      -13.490619
   3      -13.126796
   4       -9.182398
   5       -8.270280
   6       -6.226296
   7       -4.607870
   8       -4.196714
   9       -2.895932
  10       -2.759393
  11       -2.292032
  12       -1.645896
  13       -1.513844
  14       -0.817098
  15       -0.411171
  16        3.535930
  17        5.001627
  18        8.807856
  19        9.693324
  20        9.760884
  21       10.236064
  22       10.315719
  23       11.830215
  24       13.554264
 
  0.5000000E+00  0.2500000E+00  0.1262379E-14  0.1562500E-01
   1      -14.526365
   2      -13.058513
   3      -13.058427
   4       -9.329666
   5       -8.468730
   6       -5.752718
   7       -4.969557
   8       -4.969265
   9       -2.607332
  10       -2.606918
  11       -2.133553
  12       -1.990182