Automatically generated mesh
      73
Reciprocal lattice
    0.00000000000000    0.00000000000000    0.00000000000000             1
    0.06250000000000    0.00000000000000    0.00000000000000             4
    0.12500000000000    0.00000000000000    0.00000000000000             4
    0.18750000000000    0.00000000000000    0.00000000000000             4
    0.25000000000000    0.00000000000000    0.00000000000000             4
    0.31250000000000    0.00000000000000    0.00000000000000             4
    0.37500000000000    0.00000000000000    0.00000000000000             4
    0.43750000000000    0.00000000000000    0.00000000000000             4
    0.50000000000000    0.00000000000000    0.00000000000000             2
    0.06250000000000    0.06250000000000    0.00000000000000             2
    0.12500000000000    0.06250000000000    0.00000000000000             4
    0.18750000000000    0.06250000000000    0.00000000000000             4
    0.25000000000000    0.06250000000000    0.00000000000000             4
    0.31250000000000    0.06250000000000    0.00000000000000             4
    0.37500000000000    0.06250000000000    0.00000000000000             4
    0.43750000000000    0.06250000000000    0.00000000000000             4
    0.50000000000000    0.06250000000000    0.00000000000000             4
   -0.43750000000000    0.06250000000000    0.00000000000000             4
   -0.37500000000000    0.06250000000000    0.00000000000000             4
   -0.31250000000000    0.06250000000000    0.00000000000000             4
   -0.25000000000000    0.06250000000000    0.00000000000000             4
   -0.18750000000000    0.06250000000000    0.00000000000000             4
   -0.12500000000000    0.06250000000000    0.00000000000000             4
   -0.06250000000000    0.06250000000000    0.00000000000000             2
    0.12500000000000    0.12500000000000    0.00000000000000             2
    0.18750000000000    0.12500000000000    0.00000000000000             4
    0.25000000000000    0.12500000000000    0.00000000000000             4
    0.31250000000000    0.12500000000000    0.00000000000000             4
    0.37500000000000    0.12500000000000    0.00000000000000             4
    0.43750000000000    0.12500000000000    0.00000000000000             4
    0.50000000000000    0.12500000000000    0.00000000000000             4
   -0.43750000000000    0.12500000000000    0.00000000000000             4
   -0.37500000000000    0.12500000000000    0.00000000000000             4
   -0.31250000000000    0.12500000000000    0.00000000000000             4
   -0.25000000000000    0.12500000000000    0.00000000000000             4
   -0.18750000000000    0.12500000000000    0.00000000000000             4
   -0.12500000000000    0.12500000000000    0.00000000000000             2
    0.18750000000000    0.18750000000000    0.00000000000000             2
    0.25000000000000    0.18750000000000    0.00000000000000             4
    0.31250000000000    0.18750000000000    0.00000000000000             4
    0.37500000000000    0.18750000000000    0.00000000000000             4
    0.43750000000000    0.18750000000000    0.00000000000000             4
    0.50000000000000    0.18750000000000    0.00000000000000             4
   -0.43750000000000    0.18750000000000    0.00000000000000             4
   -0.37500000000000    0.18750000000000    0.00000000000000             4
   -0.31250000000000    0.18750000000000    0.00000000000000             4
   -0.25000000000000    0.18750000000000    0.00000000000000             4
   -0.18750000000000    0.18750000000000    0.00000000000000             2
    0.25000000000000    0.25000000000000    0.00000000000000             2
    0.31250000000000    0.25000000000000    0.00000000000000             4
    0.37500000000000    0.25000000000000    0.00000000000000             4
    0.43750000000000    0.25000000000000    0.00000000000000             4
    0.50000000000000    0.25000000000000    0.00000000000000             4
   -0.43750000000000    0.25000000000000    0.00000000000000             4
   -0.37500000000000    0.25000000000000    0.00000000000000             4
   -0.31250000000000    0.25000000000000    0.00000000000000             4
   -0.25000000000000    0.25000000000000    0.00000000000000             2
    0.31250000000000    0.31250000000000    0.00000000000000             2
    0.37500000000000    0.31250000000000    0.00000000000000             4
    0.43750000000000    0.31250000000000    0.00000000000000             4
    0.50000000000000    0.31250000000000    0.00000000000000             4
   -0.43750000000000    0.31250000000000    0.00000000000000             4
   -0.37500000000000    0.31250000000000    0.00000000000000             4
   -0.31250000000000    0.31250000000000    0.00000000000000             2
    0.37500000000000    0.37500000000000    0.00000000000000             2
    0.43750000000000    0.37500000000000    0.00000000000000             4
    0.50000000000000    0.37500000000000    0.00000000000000             4
   -0.43750000000000    0.37500000000000    0.00000000000000             4
   -0.37500000000000    0.37500000000000    0.00000000000000             2
    0.43750000000000    0.43750000000000    0.00000000000000             2
    0.50000000000000    0.43750000000000    0.00000000000000             4
   -0.43750000000000    0.43750000000000    0.00000000000000             2
    0.50000000000000    0.50000000000000    0.00000000000000             1
Tetrahedra
       392    0.00065104166667
         4         2         2         2        10
         4         1         2         2         2
         2         1         1         2         2
         2         2         2        10        10
         4         3        10        10        11
         4         2         3        10        10
         4         2         2         3        10
         4         3        10        11        11
         4         3         3        10        11
         4         2         3         3        10
         4         4        11        11        12
         4         3         4        11        11
         4         3         3         4        11
         4         4        11        12        12
         4         4         4        11        12
         4         3         4         4        11
         4         5        12        12        13
         4         4         5        12        12
         4         4         4         5        12
         4         5        12        13        13
         4         5         5        12        13
         4         4         5         5        12
         4         6        13        13        14
         4         5         6        13        13
         4         5         5         6        13
         4         6        13        14        14
         4         6         6        13        14
         4         5         6         6        13
         4         7        14        14        15
         4         6         7        14        14
         4         6         6         7        14
         4         7        14        15        15
         4         7         7        14        15
         4         6         7         7        14
         4         8        15        15        16
         4         7         8        15        15
         4         7         7         8        15
         4         8        15        16        16
         4         8         8        15        16
         4         7         8         8        15
         4         9        16        16        17
         4         8         9        16        16
         4         8         8         9        16
         4         9        16        17        17
         4         9         9        16        17
         4         8         9         9        16
         4         8        17        17        18
         4         8         9        17        17
         4         8         9         9        17
         4         8        17        18        18
         4         8         8        17        18
         4         8         8         9        17
         4         7        18        18        19
         4         7         8        18        18
         4         7         8         8        18
         4         7        18        19        19
         4         7         7        18        19
         4         7         7         8        18
         4         6        19        19        20
         4         6         7        19        19
         4         6         7         7        19
         4         6        19        20        20
         4         6         6        19        20
         4         6         6         7        19
         4         5        20        20        21
         4         5         6        20        20
         4         5         6         6        20
         4         5        20        21        21
         4         5         5        20        21
         4         5         5         6        20
         4         4        21        21        22
         4         4         5        21        21
         4         4         5         5        21
         4         4        21        22        22
         4         4         4        21        22
         4         4         4         5        21
         4         3        22        22        23
         4         3         4        22        22
         4         3         4         4        22
         4         3        22        23        23
         4         3         3        22        23
         4         3         3         4        22
         4         2        23        23        24
         4         2         3        23        23
         4         2         3         3        23
         4         2        23        24        24
         4         2         2        23        24
         4         2         2         3        23
         4         1         2        24        24
         4         1         2         2        24
         4         1         1         2        24
         4        11        11        11        25
         4        10        11        11        11
         2        10        10        11        11
         2        11        11        25        25
         4        12        25        25        26
         4        11        12        25        25
         4        11        11        12        25
         4        12        25        26        26
         4        12        12        25        26
         4        11        12        12        25
         4        13        26        26        27
         4        12        13        26        26
         4        12        12        13        26
         4        13        26        27        27
         4        13        13        26        27
         4        12        13        13        26
         4        14        27        27        28
         4        13        14        27        27
         4        13        13        14        27
         4        14        27        28        28
         4        14        14        27        28
         4        13        14        14        27
         4        15        28        28        29
         4        14        15        28        28
         4        14        14        15        28
         4        15        28        29        29
         4        15        15        28        29
         4        14        15        15        28
         4        16        29        29        30
         4        15        16        29        29
         4        15        15        16        29
         4        16        29        30        30
         4        16        16        29        30
         4        15        16        16        29
         4        17        30        30        31
         4        16        17        30        30
         4        16        16        17        30
         4        17        30        31        31
         4        17        17        30        31
         4        16        17        17        30
         4        18        31        31        32
         4        17        18        31        31
         4        17        17        18        31
         4        18        31        32        32
         4        18        18        31        32
         4        17        18        18        31
         4        19        32        32        33
         4        18        19        32        32
         4        18        18        19        32
         4        19        32        33        33
         4        19        19        32        33
         4        18        19        19        32
         4        20        33        33        34
         4        19        20        33        33
         4        19        19        20        33
         4        20        33        34        34
         4        20        20        33        34
         4        19        20        20        33
         4        21        34        34        35
         4        20        21        34        34
         4        20        20        21        34
         4        21        34        35        35
         4        21        21        34        35
         4        20        21        21        34
         4        22        35        35        36
         4        21        22        35        35
         4        21        21        22        35
         4        22        35        36        36
         4        22        22        35        36
         4        21        22        22        35
         4        23        36        36        37
         4        22        23        36        36
         4        22        22        23        36
         4        23        36        37        37
         4        23        23        36        37
         4        22        23        23        36
         4        23        24        37        37
         4        23        23        24        37
         4        23        24        24        37
         4        26        26        26        38
         4        25        26        26        26
         2        25        25        26        26
         2        26        26        38        38
         4        27        38        38        39
         4        26        27        38        38
         4        26        26        27        38
         4        27        38        39        39
         4        27        27        38        39
         4        26        27        27        38
         4        28        39        39        40
         4        27        28        39        39
         4        27        27        28        39
         4        28        39        40        40
         4        28        28        39        40
         4        27        28        28        39
         4        29        40        40        41
         4        28        29        40        40
         4        28        28        29        40
         4        29        40        41        41
         4        29        29        40        41
         4        28        29        29        40
         4        30        41        41        42
         4        29        30        41        41
         4        29        29        30        41
         4        30        41        42        42
         4        30        30        41        42
         4        29        30        30        41
         4        31        42        42        43
         4        30        31        42        42
         4        30        30        31        42
         4        31        42        43        43
         4        31        31        42        43
         4        30        31        31        42
         4        32        43        43        44
         4        31        32        43        43
         4        31        31        32        43
         4        32        43        44        44
         4        32        32        43        44
         4        31        32        32        43
         4        33        44        44        45
         4        32        33        44        44
         4        32        32        33        44
         4        33        44        45        45
         4        33        33        44        45
         4        32        33        33        44
         4        34        45        45        46
         4        33        34        45        45
         4        33        33        34        45
         4        34        45        46        46
         4        34        34        45        46
         4        33        34        34        45
         4        35        46        46        47
         4        34        35        46        46
         4        34        34        35        46
         4        35        46        47        47
         4        35        35        46        47
         4        34        35        35        46
         4        36        47        47        48
         4        35        36        47        47
         4        35        35        36        47
         4        36        47        48        48
         4        36        36        47        48
         4        35        36        36        47
         4        36        37        48        48
         4        36        36        37        48
         4        36        37        37        48
         4        39        39        39        49
         4        38        39        39        39
         2        38        38        39        39
         2        39        39        49        49
         4        40        49        49        50
         4        39        40        49        49
         4        39        39        40        49
         4        40        49        50        50
         4        40        40        49        50
         4        39        40        40        49
         4        41        50        50        51
         4        40        41        50        50
         4        40        40        41        50
         4        41        50        51        51
         4        41        41        50        51
         4        40        41        41        50
         4        42        51        51        52
         4        41        42        51        51
         4        41        41        42        51
         4        42        51        52        52
         4        42        42        51        52
         4        41        42        42        51
         4        43        52        52        53
         4        42        43        52        52
         4        42        42        43        52
         4        43        52        53        53
         4        43        43        52        53
         4        42        43        43        52
         4        44        53        53        54
         4        43        44        53        53
         4        43        43        44        53
         4        44        53        54        54
         4        44        44        53        54
         4        43        44        44        53
         4        45        54        54        55
         4        44        45        54        54
         4        44        44        45        54
         4        45        54        55        55
         4        45        45        54        55
         4        44        45        45        54
         4        46        55        55        56
         4        45        46        55        55
         4        45        45        46        55
         4        46        55        56        56
         4        46        46        55        56
         4        45        46        46        55
         4        47        56        56        57
         4        46        47        56        56
         4        46        46        47        56
         4        47        56        57        57
         4        47        47        56        57
         4        46        47        47        56
         4        47        48        57        57
         4        47        47        48        57
         4        47        48        48        57
         4        50        50        50        58
         4        49        50        50        50
         2        49        49        50        50
         2        50        50        58        58
         4        51        58        58        59
         4        50        51        58        58
         4        50        50        51        58
         4        51        58        59        59
         4        51        51        58        59
         4        50        51        51        58
         4        52        59        59        60
         4        51        52        59        59
         4        51        51        52        59
         4        52        59        60        60
         4        52        52        59        60
         4        51        52        52        59
         4        53        60        60        61
         4        52        53        60        60
         4        52        52        53        60
         4        53        60        61        61
         4        53        53        60        61
         4        52        53        53        60
         4        54        61        61        62
         4        53        54        61        61
         4        53        53        54        61
         4        54        61        62        62
         4        54        54        61        62
         4        53        54        54        61
         4        55        62        62        63
         4        54        55        62        62
         4        54        54        55        62
         4        55        62        63        63
         4        55        55        62        63
         4        54        55        55        62
         4        56        63        63        64
         4        55        56        63        63
         4        55        55        56        63
         4        56        63        64        64
         4        56        56        63        64
         4        55        56        56        63
         4        56        57        64        64
         4        56        56        57        64
         4        56        57        57        64
         4        59        59        59        65
         4        58        59        59        59
         2        58        58        59        59
         2        59        59        65        65
         4        60        65        65        66
         4        59        60        65        65
         4        59        59        60        65
         4        60        65        66        66
         4        60        60        65        66
         4        59        60        60        65
         4        61        66        66        67
         4        60        61        66        66
         4        60        60        61        66
         4        61        66        67        67
         4        61        61        66        67
         4        60        61        61        66
         4        62        67        67        68
         4        61        62        67        67
         4        61        61        62        67
         4        62        67        68        68
         4        62        62        67        68
         4        61        62        62        67
         4        63        68        68        69
         4        62        63        68        68
         4        62        62        63        68
         4        63        68        69        69
         4        63        63        68        69
         4        62        63        63        68
         4        63        64        69        69
         4        63        63        64        69
         4        63        64        64        69
         4        66        66        66        70
         4        65        66        66        66
         2        65        65        66        66
         2        66        66        70        70
         4        67        70        70        71
         4        66        67        70        70
         4        66        66        67        70
         4        67        70        71        71
         4        67        67        70        71
         4        66        67        67        70
         4        68        71        71        72
         4        67        68        71        71
         4        67        67        68        71
         4        68        71        72        72
         4        68        68        71        72
         4        67        68        68        71
         4        68        69        72        72
         4        68        68        69        72
         4        68        69        69        72
         4        71        71        71        73
         4        70        71        71        71
         2        70        70        71        71
         2        71        71        73        73
         4        71        72        73        73
         4        71        71        72        73
         4        71        72        72        73
