       N       E                     dE             d eps       ncg     rms          rms(c)
DAV:   1     0.107528202570E+03    0.10753E+03   -0.16062E+04  3504   0.116E+03
DAV:   2    -0.704739943748E+02   -0.17800E+03   -0.17559E+03  4596   0.238E+02
DAV:   3    -0.770795450040E+02   -0.66056E+01   -0.65867E+01  5040   0.517E+01
DAV:   4    -0.771473039525E+02   -0.67759E-01   -0.67731E-01  4620   0.556E+00
DAV:   5    -0.771492403292E+02   -0.19364E-02   -0.19360E-02  5052   0.859E-01    0.114E+01
DAV:   6    -0.726496369302E+02    0.44996E+01   -0.39294E+00  4116   0.102E+01    0.596E+00
DAV:   7    -0.710612693294E+02    0.15884E+01   -0.49244E+00  4152   0.112E+01    0.110E+00
DAV:   8    -0.710824205040E+02   -0.21151E-01   -0.90156E-02  4188   0.170E+00    0.158E-01
DAV:   9    -0.710782646015E+02    0.41559E-02   -0.82532E-03  4320   0.488E-01    0.828E-02
DAV:  10    -0.710780072959E+02    0.25731E-03   -0.38810E-04  4524   0.126E-01    0.618E-03
DAV:  11    -0.710779954087E+02    0.11887E-04   -0.13003E-05  3732   0.218E-02
   1 F= -.71077995E+02 E0= -.71077995E+02  d E =0.000000E+00
