 vasp.5.2.11 25Nov10 complex 
 executed on             LinuxIFC date 2018.12.15  13:01:57
 running on   12 nodes
 distr:  one band on    1 nodes,   12 groups


--------------------------------------------------------------------------------------------------------


 INCAR:
 POTCAR:   PAW_PBE C 08Apr2002                    
 POTCAR:   PAW_PBE C 08Apr2002                    
   VRHFIN =C: s2p2                                                              
   LEXCH  = PE                                                                  
   EATOM  =   147.1560 eV,   10.8157 Ry                                         
                                                                                
   TITEL  = PAW_PBE C 08Apr2002                                                 
   LULTRA =        F    use ultrasoft PP ?                                      
   IUNSCR =        0    unscreen: 0-lin 1-nonlin 2-no                           
   RPACOR =     .000    partial core radius                                     
   POMASS =   12.011; ZVAL   =    4.000    mass and valenz                      
   RCORE  =    1.500    outmost cutoff radius                                   
   RWIGS  =    1.630; RWIGS  =     .863    wigner-seitz radius (au A)           
   ENMAX  =  400.000; ENMIN  =  300.000 eV                                      
   ICORE  =        2    local potential                                         
   LCOR   =        T    correct aug charges                                     
   LPAW   =        T    paw PP                                                  
   EAUG   =  644.873                                                            
   DEXC   =     .000                                                            
   RMAX   =    2.266    core radius for proj-oper                               
   RAUG   =    1.300    factor for augmentation sphere                          
   RDEP   =    1.501    radius for radial grids                                 
   RDEPT  =    1.300    core radius for aug-charge                              
   QCUT   =   -5.516; QGAM   =   11.032    optimization parameters              
                                                                                
   Description                                                                  
     l     E      TYP  RCUT    TYP  RCUT                                        
     0   .000     23  1.200                                                     
     0   .000     23  1.200                                                     
     1   .000     23  1.500                                                     
     1  2.500     23  1.500                                                     
     2   .000      7  1.500                                                     
  local pseudopotential read in
  atomic valenz-charges read in
  non local Contribution for L=           0  read in
    real space projection operators read in
  non local Contribution for L=           0  read in
    real space projection operators read in
  non local Contribution for L=           1  read in
    real space projection operators read in
  non local Contribution for L=           1  read in
    real space projection operators read in
    PAW grid and wavefunctions read in
 
   number of l-projection  operators is LMAX  =           4
   number of lm-projection operators is LMMAX =           8
 
 PAW_PBE C 08Apr2002                    :
 energy of atom  1       EATOM= -147.1560
 kinetic energy error for atom=    0.0076 (will be added to EATOM!!)
 
 
 POSCAR: graphite                                
  positions in direct lattice
  velocities in cartesian coordinates
 exchange correlation table for  LEXCH =        8
   RHO(1)=    0.500       N(1)  =     2000
   RHO(2)=  100.500       N(2)  =     4000

 VTST: version 3.1, (03/28/14)

 CHAIN: initializing optimizer
 
 OPT: Using VASP Dynamics algorithm
 CHAIN: Read ICHAIN            0
 
 POSCAR: graphite                                
  positions in direct lattice
  velocities in cartesian coordinates
 


--------------------------------------------------------------------------------------------------------


 ion  position               nearest neighbor table
   1  1.000  0.000  0.073-   4 1.42   8 1.42   2 1.42
   2  0.333  0.167  0.073-   3 1.42   7 1.42   1 1.42
   3  0.500  0.000  0.073-   2 1.42   6 1.42   4 1.42
   4  0.833  0.167  0.073-   1 1.42   3 1.42   5 1.42
   5  1.000  0.500  0.073-   8 1.42   4 1.42   6 1.42
   6  0.333  0.667  0.073-   7 1.42   3 1.42   5 1.42
   7  0.500  0.500  0.073-   6 1.42   8 1.42   2 1.42
   8  0.833  0.667  0.073-   5 1.42   1 1.42   7 1.42
 
  LATTYP: Found a base centered orthorhombic cell.
 ALAT       =     4.9041094316
 B/A-ratio  =     1.7320774176
 C/A-ratio  =     0.7835771167
  
  Lattice vectors:
  
 A1 = (   4.9041659392,  -0.0000326247,   0.0000000000)
 A2 = (  -2.4521112234,   4.2471159754,   0.0000000000)
 A3 = (   0.0000000000,   0.0000000000,   3.8427479285)
 Subroutine PRICEL returns following result:
 
  LATTYP: Found a simple monoclinic cell.
 ALAT       =     2.4520971692
 B/A-ratio  =     1.5671271011
 C/A-ratio  =     1.7320375029
 COS(beta)  =    -0.8660287471
  
  Lattice vectors:
  
 A1 = (   1.2260627116,  -2.1235702848,   0.0000000000)
 A2 = (   0.0000000000,   0.0000000000,  -3.8427479285)
 A3 = (  -0.0000566531,   4.2471242574,   0.0000000000)
 
   4 primitive cells build up your supercell.
 

Analysis of symmetry for initial positions (statically):

 Routine SETGRP: Setting up the symmetry group for a 
 base centered orthorhombic supercell.


 Subroutine GETGRP returns: Found  8 space group operations
 (whereof  2 operations were pure point group operations)
 out of a pool of  8 trial point group operations.


The static configuration has the point symmetry C_1h.
 The point group associated with its full space group is D_2h.

Analysis of symmetry for dynamics (positions and initial velocities):

 Subroutine DYNSYM returns: Found  8 space group operations
 (whereof  2 operations were pure point group operations)
 out of a pool of  8 trial space group operations
 (whereof  2 operations were pure point group operations)
 and found also     4 'primitive' translations


The dynamic configuration has the point symmetry C_1h.
 The point group associated with its full space group is D_2h.
 
 
 KPOINTS: Automatic mesh                          

Automatic generation of k-mesh.
 
 Subroutine IBZKPT returns following result:
 ===========================================
 
 Found     73 irreducible k-points:
 
 Following reciprocal coordinates:
            Coordinates               Weight
  0.000000  0.000000  0.000000      1.000000
  0.062500  0.000000  0.000000      4.000000
  0.125000  0.000000  0.000000      4.000000
  0.187500  0.000000  0.000000      4.000000
  0.250000  0.000000  0.000000      4.000000
  0.312500  0.000000  0.000000      4.000000
  0.375000  0.000000  0.000000      4.000000
  0.437500  0.000000  0.000000      4.000000
  0.500000  0.000000  0.000000      2.000000
  0.062500  0.062500  0.000000      2.000000
  0.125000  0.062500  0.000000      4.000000
  0.187500  0.062500  0.000000      4.000000
  0.250000  0.062500  0.000000      4.000000
  0.312500  0.062500  0.000000      4.000000
  0.375000  0.062500  0.000000      4.000000
  0.437500  0.062500  0.000000      4.000000
  0.500000  0.062500  0.000000      4.000000
 -0.437500  0.062500  0.000000      4.000000
 -0.375000  0.062500  0.000000      4.000000
 -0.312500  0.062500  0.000000      4.000000
 -0.250000  0.062500  0.000000      4.000000
 -0.187500  0.062500  0.000000      4.000000
 -0.125000  0.062500  0.000000      4.000000
 -0.062500  0.062500  0.000000      2.000000
  0.125000  0.125000  0.000000      2.000000
  0.187500  0.125000  0.000000      4.000000
  0.250000  0.125000  0.000000      4.000000
  0.312500  0.125000  0.000000      4.000000
  0.375000  0.125000  0.000000      4.000000
  0.437500  0.125000  0.000000      4.000000
  0.500000  0.125000  0.000000      4.000000
 -0.437500  0.125000  0.000000      4.000000
 -0.375000  0.125000  0.000000      4.000000
 -0.312500  0.125000  0.000000      4.000000
 -0.250000  0.125000  0.000000      4.000000
 -0.187500  0.125000  0.000000      4.000000
 -0.125000  0.125000  0.000000      2.000000
  0.187500  0.187500  0.000000      2.000000
  0.250000  0.187500  0.000000      4.000000
  0.312500  0.187500  0.000000      4.000000
  0.375000  0.187500  0.000000      4.000000
  0.437500  0.187500  0.000000      4.000000
  0.500000  0.187500  0.000000      4.000000
 -0.437500  0.187500  0.000000      4.000000
 -0.375000  0.187500  0.000000      4.000000
 -0.312500  0.187500  0.000000      4.000000
 -0.250000  0.187500  0.000000      4.000000
 -0.187500  0.187500  0.000000      2.000000
  0.250000  0.250000  0.000000      2.000000
  0.312500  0.250000  0.000000      4.000000
  0.375000  0.250000  0.000000      4.000000
  0.437500  0.250000  0.000000      4.000000
  0.500000  0.250000  0.000000      4.000000
 -0.437500  0.250000  0.000000      4.000000
 -0.375000  0.250000  0.000000      4.000000
 -0.312500  0.250000  0.000000      4.000000
 -0.250000  0.250000  0.000000      2.000000
  0.312500  0.312500  0.000000      2.000000
  0.375000  0.312500  0.000000      4.000000
  0.437500  0.312500  0.000000      4.000000
  0.500000  0.312500  0.000000      4.000000
 -0.437500  0.312500  0.000000      4.000000
 -0.375000  0.312500  0.000000      4.000000
 -0.312500  0.312500  0.000000      2.000000
  0.375000  0.375000  0.000000      2.000000
  0.437500  0.375000  0.000000      4.000000
  0.500000  0.375000  0.000000      4.000000
 -0.437500  0.375000  0.000000      4.000000
 -0.375000  0.375000  0.000000      2.000000
  0.437500  0.437500  0.000000      2.000000
  0.500000  0.437500  0.000000      4.000000
 -0.437500  0.437500  0.000000      2.000000
  0.500000  0.500000  0.000000      1.000000
 
 Following cartesian coordinates:
            Coordinates               Weight
  0.000000  0.000000  0.000000      1.000000
  0.012744  0.007358  0.000000      4.000000
  0.025489  0.014716  0.000000      4.000000
  0.038233  0.022074  0.000000      4.000000
  0.050977  0.029432  0.000000      4.000000
  0.063722  0.036790  0.000000      4.000000
  0.076466  0.044148  0.000000      4.000000
  0.089210  0.051506  0.000000      4.000000
  0.101955  0.058864  0.000000      2.000000
  0.012744  0.022074  0.000000      2.000000
  0.025489  0.029432  0.000000      4.000000
  0.038233  0.036790  0.000000      4.000000
  0.050977  0.044148  0.000000      4.000000
  0.063722  0.051506  0.000000      4.000000
  0.076466  0.058864  0.000000      4.000000
  0.089210  0.066222  0.000000      4.000000
  0.101955  0.073580  0.000000      4.000000
 -0.089210 -0.036790  0.000000      4.000000
 -0.076466 -0.029432  0.000000      4.000000
 -0.063721 -0.022074  0.000000      4.000000
 -0.050977 -0.014716  0.000000      4.000000
 -0.038233 -0.007358  0.000000      4.000000
 -0.025489 -0.000000  0.000000      4.000000
 -0.012744  0.007358  0.000000      2.000000
  0.025489  0.044148  0.000000      2.000000
  0.038233  0.051506  0.000000      4.000000
  0.050977  0.058864  0.000000      4.000000
  0.063722  0.066222  0.000000      4.000000
  0.076466  0.073580  0.000000      4.000000
  0.089210  0.080938  0.000000      4.000000
  0.101955  0.088296  0.000000      4.000000
 -0.089210 -0.022074  0.000000      4.000000
 -0.076466 -0.014716  0.000000      4.000000
 -0.063721 -0.007358  0.000000      4.000000
 -0.050977 -0.000000  0.000000      4.000000
 -0.038233  0.007358  0.000000      4.000000
 -0.025488  0.014716  0.000000      2.000000
  0.038233  0.066222  0.000000      2.000000
  0.050978  0.073580  0.000000      4.000000
  0.063722  0.080938  0.000000      4.000000
  0.076466  0.088296  0.000000      4.000000
  0.089211  0.095654  0.000000      4.000000
  0.101955  0.103012  0.000000      4.000000
 -0.089210 -0.007359  0.000000      4.000000
 -0.076466 -0.000001  0.000000      4.000000
 -0.063721  0.007358  0.000000      4.000000
 -0.050977  0.014716  0.000000      4.000000
 -0.038233  0.022074  0.000000      2.000000
  0.050978  0.088296  0.000000      2.000000
  0.063722  0.095654  0.000000      4.000000
  0.076466  0.103012  0.000000      4.000000
  0.089211  0.110370  0.000000      4.000000
  0.101955  0.117728  0.000000      4.000000
 -0.089210  0.007357  0.000000      4.000000
 -0.076466  0.014715  0.000000      4.000000
 -0.063721  0.022073  0.000000      4.000000
 -0.050977  0.029432  0.000000      2.000000
  0.063722  0.110370  0.000000      2.000000
  0.076466  0.117728  0.000000      4.000000
  0.089211  0.125086  0.000000      4.000000
  0.101955  0.132444  0.000000      4.000000
 -0.089210  0.022073  0.000000      4.000000
 -0.076465  0.029431  0.000000      4.000000
 -0.063721  0.036789  0.000000      2.000000
  0.076466  0.132444  0.000000      2.000000
  0.089211  0.139802  0.000000      4.000000
  0.101955  0.147160  0.000000      4.000000
 -0.089210  0.036789  0.000000      4.000000
 -0.076465  0.044147  0.000000      2.000000
  0.089211  0.154518  0.000000      2.000000
  0.101955  0.161876  0.000000      4.000000
 -0.089210  0.051505  0.000000      2.000000
  0.101955  0.176592  0.000000      1.000000
 
 TETIRR: Found    392 inequivalent tetrahedra from     1536


--------------------------------------------------------------------------------------------------------




 Dimension of arrays:
   k-points           NKPTS =     73   k-points in BZ     NKDIM =     73   number of bands    NBANDS=     24
   number of dos      NEDOS =   1000   number of ions     NIONS =      8
   non local maximal  LDIM  =      4   non local SUM 2l+1 LMDIM =      8
   total plane-waves  NPLWV =  18816
   max r-space proj   IRMAX =      1   max aug-charges    IRDMAX=   1143
   dimension x,y,z NGX =    28 NGY =   28 NGZ =   24
   dimension x,y,z NGXF=    40 NGYF=   40 NGZF=   32
   support grid    NGXF=    40 NGYF=   40 NGZF=   32
   ions per type =               8
 NGX,Y,Z   is equivalent  to a cutoff of   9.49,  9.49, 10.38 a.u.
 NGXF,Y,Z  is equivalent  to a cutoff of  13.56, 13.56, 13.84 a.u.


 I would recommend the setting:
   dimension x,y,z NGX =    27 NGY =   27 NGZ =   21
 SYSTEM =  NAME                                    
 POSCAR =  graphite                                

 Startparameter for this run:
   NWRITE =      2    write-flag & timer
   PREC   = medium    normal or accurate (medium, high low for compatibility)
   ISTART =      0    job   : 0-new  1-cont  2-samecut
   ICHARG =      2    charge: 1-file 2-atom 10-const
   ISPIN  =      1    spin polarized calculation?
   LNONCOLLINEAR =      F non collinear calculations
   LSORBIT =      F    spin-orbit coupling
   INIWAV =      1    electr: 0-lowe 1-rand  2-diag
   LASPH  =      F    aspherical Exc in radial PAW
   METAGGA=      F    non-selfconsistent MetaGGA calc.

 Electronic Relaxation 1
   ENCUT  =  500.0 eV  36.75 Ry    6.06 a.u.   8.94  8.94  7.01*2*pi/ulx,y,z
   ENINI  =  500.0     initial cutoff
   ENAUG  =  644.9 eV  augmentation charge cutoff
   NELM   =    100;   NELMIN=  5; NELMDL= -5     # of ELM steps 
   EDIFF  = 0.1E-03   stopping-criterion for ELM
   LREAL  =      F    real-space projection
   LCOMPAT=      F    compatible to vasp.4.4
   GGA_COMPAT  = T    GGA compatible to vasp.4.4-vasp.4.6
   LMAXPAW     = -100 max onsite density
   LMAXMIX     =    2 max onsite mixed and CHGCAR
   VOSKOWN=      0    Vosko Wilk Nusair interpolation
   ROPT   =    0.00000
 Ionic relaxation
   EDIFFG = 0.1E-02   stopping-criterion for IOM
   NSW    =      0    number of steps for IOM
   NBLOCK =      1;   KBLOCK =      1    inner block; outer block 
   IBRION =     -1    ionic relax: 0-MD 1-quasi-New 2-CG
   NFREE  =      0    steps in history (QN), initial steepest desc. (CG)
   ISIF   =      2    stress and relaxation
   IWAVPR =     10    prediction:  0-non 1-charg 2-wave 3-comb
   ISYM   =      2    0-nonsym 1-usesym 2-fastsym
   LCORR  =      T    Harris-Foulkes like correction to forces

   POTIM  = 0.5000    time-step for ionic-motion
   TEIN   =    0.0    initial temperature
   TEBEG  =    0.0;   TEEND  =   0.0 temperature during run
   SMASS  =  -3.00    Nose mass-parameter (am)
   estimated Nose-frequenzy (Omega)   =  0.10E-29 period in steps =****** mass=  -0.550E-27a.u.
   NPACO  =    256;   APACO  = 16.0  distance and # of slots for P.C.
   PSTRESS=    0.0 pullay stress

  Mass of Ions in am
   POMASS =  12.01
  Ionic Valenz
   ZVAL   =   4.00
  Atomic Wigner-Seitz radii
   RWIGS  =  -1.00
  virtual crystal weights 
   VCA    =   1.00
   NELECT =      32.0000    total number of electrons
   NUPDOWN=      -1.0000    fix difference up-down

 DOS related values:
   EMIN   =  10.00;   EMAX   =-10.00  energy-range for DOS
   EFERMI =   0.00
   ISMEAR =    -5;   SIGMA  =   0.20  broadening in eV -4-tet -1-fermi 0-gaus

 Electronic relaxation 2 (details)
   IALGO  =     38    algorithm
   LDIAG  =      T    sub-space diagonalisation (order eigenvalues)
   LSUBROT=      T    optimize rotation matrix (better conditioning)
   TURBO    =      0    0=normal 1=particle mesh
   IRESTART =      0    0=no restart 2=restart with 2 vectors
   NREBOOT  =      0    no. of reboots
   NMIN     =      0    reboot dimension
   EREF     =   0.00    reference energy to select bands
   IMIX   =      4    mixing-type and parameters
     AMIX     =   0.40;   BMIX     =  1.00
     AMIX_MAG =   1.60;   BMIX_MAG =  1.00
     AMIN     =   0.10
     WC   =   100.;   INIMIX=   1;  MIXPRE=   1

 Intra band minimization:
   WEIMIN = 0.0000     energy-eigenvalue tresh-hold
   EBREAK =  0.12E-05  absolut break condition
   DEPER  =   0.30     relativ break condition  

   TIME   =   0.40     timestep for ELM

  volume/ion in A,a.u.               =      10.00        67.52
  Fermi-wavevector in a.u.,A,eV,Ry     =   1.206031  2.279067 19.789807  1.454510
  Thomas-Fermi vector in A             =   2.341710
 
 Write flags
   LWAVE  =      T    write WAVECAR
   LCHARG =      T    write CHGCAR
   LVTOT  =      F    write LOCPOT, total local potential
   LVHAR  =      F    write LOCPOT, Hartree potential only
   LELF   =      F    write electronic localiz. function (ELF)
   LORBIT =     11    0 simple, 1 ext, 2 COOP (PROOUT)


 Dipole corrections
   LMONO  =      F    monopole corrections only (constant potential shift)
   LDIPOL =      F    correct potential (dipole corrections)
   IDIPOL =      0    1-x, 2-y, 3-z, 4-all directions 
   EPSILON=  1.0000000 bulk dielectric constant

 Exchange correlation treatment:
   GGA     =    --    GGA type
   LEXCH   =     8    internal setting for exchange type
   VOSKOWN=      0    Vosko Wilk Nusair interpolation
   LHFCALC =     F    Hartree Fock is set to
   LHFONE  =     F    Hartree Fock one center treatment
   AEXX    =    0.0000 exact exchange contribution

 Linear response parameters
   LEPSILON=     F    determine dielectric tensor
   LRPA    =     F    only Hartree local field effects (RPA)
   LNABLA  =     F    use nabla operator in PAW spheres
   LVEL    =     F    velocity operator in full k-point grid
   LINTERFAST=   F  fast interpolation
   KINTER  =     0    interpolate to denser k-point grid
   CSHIFT  =0.1000    complex shift for real part using Kramers Kronig
   OMEGAMAX=  -1.0    maximum frequency
   RTIME   =    0.100 relaxation time in fs

 Orbital magnetization related:
   ORBITALMAG=     F  switch on orbital magnetization
   LCHIMAG   =     F  perturbation theory with respect to B field



--------------------------------------------------------------------------------------------------------


 Static calculation
 charge density and potential will be updated during run
 non-spin polarized calculation
 Variant of blocked Davidson
 Davidson routine will perform the subspace rotation
 perform sub-space diagonalisation
    after iterative eigenvector-optimisation
 modified Broyden-mixing scheme, WC =      100.0
 initial mixing is a Kerker type mixing with AMIX =  0.4000 and BMIX =      1.0000
 Hartree-type preconditioning will be used
 using additional bands            8
 reciprocal scheme for non local part
 calculate Harris-corrections to forces 
   (improved forces if not selfconsistent)
 use gradient corrections 
 use of overlap-Matrix (Vanderbilt PP)
 Fermi weights with tetrahedron method with Bloechl corrections


--------------------------------------------------------------------------------------------------------


  energy-cutoff  :      500.00
  volume of cell :       80.04
      direct lattice vectors                 reciprocal lattice vectors
     4.904165939 -0.000032625  0.000000000     0.203909055  0.117728756  0.000000000
    -2.452111223  4.247115975  0.000000000     0.000001566  0.235454800  0.000000000
     0.000000000  0.000000000  3.842747929     0.000000000  0.000000000  0.260230444

  length of vectors
     4.904165939  4.904165939  3.842747929     0.235454800  0.235454800  0.260230444


 
 k-points in units of 2pi/SCALE and weight: Automatic mesh                          
   0.00000000  0.00000000  0.00000000       0.004
   0.01274432  0.00735805  0.00000000       0.016
   0.02548863  0.01471609  0.00000000       0.016
   0.03823295  0.02207414  0.00000000       0.016
   0.05097726  0.02943219  0.00000000       0.016
   0.06372158  0.03679024  0.00000000       0.016
   0.07646590  0.04414828  0.00000000       0.016
   0.08921021  0.05150633  0.00000000       0.016
   0.10195453  0.05886438  0.00000000       0.008
   0.01274441  0.02207397  0.00000000       0.008
   0.02548873  0.02943202  0.00000000       0.016
   0.03823305  0.03679007  0.00000000       0.016
   0.05097736  0.04414811  0.00000000       0.016
   0.06372168  0.05150616  0.00000000       0.016
   0.07646599  0.05886421  0.00000000       0.016
   0.08921031  0.06622226  0.00000000       0.016
   0.10195463  0.07358030  0.00000000       0.016
  -0.08921011 -0.03679041  0.00000000       0.016
  -0.07646580 -0.02943236  0.00000000       0.016
  -0.06372148 -0.02207431  0.00000000       0.016
  -0.05097717 -0.01471626  0.00000000       0.016
  -0.03823285 -0.00735822  0.00000000       0.016
  -0.02548853 -0.00000017  0.00000000       0.016
  -0.01274422  0.00735788  0.00000000       0.008
   0.02548883  0.04414794  0.00000000       0.008
   0.03823314  0.05150599  0.00000000       0.016
   0.05097746  0.05886404  0.00000000       0.016
   0.06372178  0.06622209  0.00000000       0.016
   0.07646609  0.07358013  0.00000000       0.016
   0.08921041  0.08093818  0.00000000       0.016
   0.10195472  0.08829623  0.00000000       0.016
  -0.08921002 -0.02207448  0.00000000       0.016
  -0.07646570 -0.01471643  0.00000000       0.016
  -0.06372138 -0.00735839  0.00000000       0.016
  -0.05097707 -0.00000034  0.00000000       0.016
  -0.03823275  0.00735771  0.00000000       0.016
  -0.02548844  0.01471576  0.00000000       0.008
   0.03823324  0.06622192  0.00000000       0.008
   0.05097756  0.07357996  0.00000000       0.016
   0.06372187  0.08093801  0.00000000       0.016
   0.07646619  0.08829606  0.00000000       0.016
   0.08921051  0.09565411  0.00000000       0.016
   0.10195482  0.10301215  0.00000000       0.016
  -0.08920992 -0.00735856  0.00000000       0.016
  -0.07646560 -0.00000051  0.00000000       0.016
  -0.06372129  0.00735754  0.00000000       0.016
  -0.05097697  0.01471559  0.00000000       0.016
  -0.03823265  0.02207363  0.00000000       0.008
   0.05097766  0.08829589  0.00000000       0.008
   0.06372197  0.09565394  0.00000000       0.016
   0.07646629  0.10301198  0.00000000       0.016
   0.08921060  0.11037003  0.00000000       0.016
   0.10195492  0.11772808  0.00000000       0.016
  -0.08920982  0.00735737  0.00000000       0.016
  -0.07646550  0.01471542  0.00000000       0.016
  -0.06372119  0.02207346  0.00000000       0.016
  -0.05097687  0.02943151  0.00000000       0.008
   0.06372207  0.11036986  0.00000000       0.008
   0.07646639  0.11772791  0.00000000       0.016
   0.08921070  0.12508596  0.00000000       0.016
   0.10195502  0.13244400  0.00000000       0.016
  -0.08920972  0.02207329  0.00000000       0.016
  -0.07646541  0.02943134  0.00000000       0.016
  -0.06372109  0.03678939  0.00000000       0.008
   0.07646648  0.13244383  0.00000000       0.008
   0.08921080  0.13980188  0.00000000       0.016
   0.10195511  0.14715993  0.00000000       0.016
  -0.08920962  0.03678922  0.00000000       0.016
  -0.07646531  0.04414727  0.00000000       0.008
   0.08921090  0.15451781  0.00000000       0.008
   0.10195521  0.16187585  0.00000000       0.016
  -0.08920953  0.05150514  0.00000000       0.008
   0.10195531  0.17659178  0.00000000       0.004
 
 k-points in reciprocal lattice and weights: Automatic mesh                          
   0.00000000  0.00000000  0.00000000       0.004
   0.06250000  0.00000000  0.00000000       0.016
   0.12500000  0.00000000  0.00000000       0.016
   0.18750000  0.00000000  0.00000000       0.016
   0.25000000  0.00000000  0.00000000       0.016
   0.31250000  0.00000000  0.00000000       0.016
   0.37500000  0.00000000  0.00000000       0.016
   0.43750000  0.00000000  0.00000000       0.016
   0.50000000  0.00000000  0.00000000       0.008
   0.06250000  0.06250000  0.00000000       0.008
   0.12500000  0.06250000  0.00000000       0.016
   0.18750000  0.06250000  0.00000000       0.016
   0.25000000  0.06250000  0.00000000       0.016
   0.31250000  0.06250000  0.00000000       0.016
   0.37500000  0.06250000  0.00000000       0.016
   0.43750000  0.06250000  0.00000000       0.016
   0.50000000  0.06250000  0.00000000       0.016
  -0.43750000  0.06250000  0.00000000       0.016
  -0.37500000  0.06250000  0.00000000       0.016
  -0.31250000  0.06250000  0.00000000       0.016
  -0.25000000  0.06250000  0.00000000       0.016
  -0.18750000  0.06250000  0.00000000       0.016
  -0.12500000  0.06250000  0.00000000       0.016
  -0.06250000  0.06250000  0.00000000       0.008
   0.12500000  0.12500000  0.00000000       0.008
   0.18750000  0.12500000  0.00000000       0.016
   0.25000000  0.12500000  0.00000000       0.016
   0.31250000  0.12500000  0.00000000       0.016
   0.37500000  0.12500000  0.00000000       0.016
   0.43750000  0.12500000  0.00000000       0.016
   0.50000000  0.12500000  0.00000000       0.016
  -0.43750000  0.12500000  0.00000000       0.016
  -0.37500000  0.12500000  0.00000000       0.016
  -0.31250000  0.12500000  0.00000000       0.016
  -0.25000000  0.12500000  0.00000000       0.016
  -0.18750000  0.12500000  0.00000000       0.016
  -0.12500000  0.12500000  0.00000000       0.008
   0.18750000  0.18750000  0.00000000       0.008
   0.25000000  0.18750000  0.00000000       0.016
   0.31250000  0.18750000  0.00000000       0.016
   0.37500000  0.18750000  0.00000000       0.016
   0.43750000  0.18750000  0.00000000       0.016
   0.50000000  0.18750000  0.00000000       0.016
  -0.43750000  0.18750000  0.00000000       0.016
  -0.37500000  0.18750000  0.00000000       0.016
  -0.31250000  0.18750000  0.00000000       0.016
  -0.25000000  0.18750000  0.00000000       0.016
  -0.18750000  0.18750000  0.00000000       0.008
   0.25000000  0.25000000  0.00000000       0.008
   0.31250000  0.25000000  0.00000000       0.016
   0.37500000  0.25000000  0.00000000       0.016
   0.43750000  0.25000000  0.00000000       0.016
   0.50000000  0.25000000  0.00000000       0.016
  -0.43750000  0.25000000  0.00000000       0.016
  -0.37500000  0.25000000  0.00000000       0.016
  -0.31250000  0.25000000  0.00000000       0.016
  -0.25000000  0.25000000  0.00000000       0.008
   0.31250000  0.31250000  0.00000000       0.008
   0.37500000  0.31250000  0.00000000       0.016
   0.43750000  0.31250000  0.00000000       0.016
   0.50000000  0.31250000  0.00000000       0.016
  -0.43750000  0.31250000  0.00000000       0.016
  -0.37500000  0.31250000  0.00000000       0.016
  -0.31250000  0.31250000  0.00000000       0.008
   0.37500000  0.37500000  0.00000000       0.008
   0.43750000  0.37500000  0.00000000       0.016
   0.50000000  0.37500000  0.00000000       0.016
  -0.43750000  0.37500000  0.00000000       0.016
  -0.37500000  0.37500000  0.00000000       0.008
   0.43750000  0.43750000  0.00000000       0.008
   0.50000000  0.43750000  0.00000000       0.016
  -0.43750000  0.43750000  0.00000000       0.008
   0.50000000  0.50000000  0.00000000       0.004
 
 position of ions in fractional coordinates (direct lattice) 
   0.99999710  0.00000290  0.07317000
   0.33333290  0.16666710  0.07317000
   0.49999710  0.00000290  0.07317000
   0.83333287  0.16666710  0.07317000
   0.99999710  0.50000290  0.07317000
   0.33333290  0.66666713  0.07317000
   0.49999710  0.50000290  0.07317000
   0.83333287  0.66666713  0.07317000
 
 position of ions in cartesian coordinates  (Angst):
   4.90414464 -0.00002033  0.28117386
   1.22603359  0.70784363  0.28117386
   2.45206167 -0.00000402  0.28117386
   3.67811642  0.70782731  0.28117386
   3.67808903  2.12353766  0.28117386
  -0.00002209  2.83140174  0.28117386
   1.22600606  2.12355397  0.28117386
   2.45206074  2.83138542  0.28117386
 


--------------------------------------------------------------------------------------------------------


 k-point  1 :  0.00000.00000.0000  plane waves:    2001
 k-point  2 :  0.06250.00000.0000  plane waves:    2025
 k-point  3 :  0.12500.00000.0000  plane waves:    2017
 k-point  4 :  0.18750.00000.0000  plane waves:    2021
 k-point  5 :  0.25000.00000.0000  plane waves:    2029
 k-point  6 :  0.31250.00000.0000  plane waves:    2020
 k-point  7 :  0.37500.00000.0000  plane waves:    2028
 k-point  8 :  0.43750.00000.0000  plane waves:    2024
 k-point  9 :  0.50000.00000.0000  plane waves:    2024
 k-point 10 :  0.06250.06250.0000  plane waves:    2021
 k-point 11 :  0.12500.06250.0000  plane waves:    2023
 k-point 12 :  0.18750.06250.0000  plane waves:    2027
 k-point 13 :  0.25000.06250.0000  plane waves:    2027
 k-point 14 :  0.31250.06250.0000  plane waves:    2028
 k-point 15 :  0.37500.06250.0000  plane waves:    2018
 k-point 16 :  0.43750.06250.0000  plane waves:    2021
 k-point 17 :  0.50000.06250.0000  plane waves:    2021
 k-point 18 :  -.43750.06250.0000  plane waves:    2018
 k-point 19 :  -.37500.06250.0000  plane waves:    2028
 k-point 20 :  -.31250.06250.0000  plane waves:    2027
 k-point 21 :  -.25000.06250.0000  plane waves:    2027
 k-point 22 :  -.18750.06250.0000  plane waves:    2023
 k-point 23 :  -.12500.06250.0000  plane waves:    2021
 k-point 24 :  -.06250.06250.0000  plane waves:    2025
 k-point 25 :  0.12500.12500.0000  plane waves:    2017
 k-point 26 :  0.18750.12500.0000  plane waves:    2026
 k-point 27 :  0.25000.12500.0000  plane waves:    2025
 k-point 28 :  0.31250.12500.0000  plane waves:    2025
 k-point 29 :  0.37500.12500.0000  plane waves:    2022
 k-point 30 :  0.43750.12500.0000  plane waves:    2015
 k-point 31 :  0.50000.12500.0000  plane waves:    2022
 k-point 32 :  -.43750.12500.0000  plane waves:    2025
 k-point 33 :  -.37500.12500.0000  plane waves:    2025
 k-point 34 :  -.31250.12500.0000  plane waves:    2026
 k-point 35 :  -.25000.12500.0000  plane waves:    2017
 k-point 36 :  -.18750.12500.0000  plane waves:    2023
 k-point 37 :  -.12500.12500.0000  plane waves:    2017
 k-point 38 :  0.18750.18750.0000  plane waves:    2029
 k-point 39 :  0.25000.18750.0000  plane waves:    2035
 k-point 40 :  0.31250.18750.0000  plane waves:    2029
 k-point 41 :  0.37500.18750.0000  plane waves:    2015
 k-point 42 :  0.43750.18750.0000  plane waves:    2015
 k-point 43 :  0.50000.18750.0000  plane waves:    2029
 k-point 44 :  -.43750.18750.0000  plane waves:    2035
 k-point 45 :  -.37500.18750.0000  plane waves:    2029
 k-point 46 :  -.31250.18750.0000  plane waves:    2026
 k-point 47 :  -.25000.18750.0000  plane waves:    2027
 k-point 48 :  -.18750.18750.0000  plane waves:    2021
 k-point 49 :  0.25000.25000.0000  plane waves:    2023
 k-point 50 :  0.31250.25000.0000  plane waves:    2013
 k-point 51 :  0.37500.25000.0000  plane waves:    2003
 k-point 52 :  0.43750.25000.0000  plane waves:    2013
 k-point 53 :  0.50000.25000.0000  plane waves:    2023
 k-point 54 :  -.43750.25000.0000  plane waves:    2035
 k-point 55 :  -.37500.25000.0000  plane waves:    2025
 k-point 56 :  -.31250.25000.0000  plane waves:    2027
 k-point 57 :  -.25000.25000.0000  plane waves:    2029
 k-point 58 :  0.31250.31250.0000  plane waves:    2001
 k-point 59 :  0.37500.31250.0000  plane waves:    2001
 k-point 60 :  0.43750.31250.0000  plane waves:    2013
 k-point 61 :  0.50000.31250.0000  plane waves:    2029
 k-point 62 :  -.43750.31250.0000  plane waves:    2025
 k-point 63 :  -.37500.31250.0000  plane waves:    2028
 k-point 64 :  -.31250.31250.0000  plane waves:    2020
 k-point 65 :  0.37500.37500.0000  plane waves:    2003
 k-point 66 :  0.43750.37500.0000  plane waves:    2015
 k-point 67 :  0.50000.37500.0000  plane waves:    2022
 k-point 68 :  -.43750.37500.0000  plane waves:    2018
 k-point 69 :  -.37500.37500.0000  plane waves:    2028
 k-point 70 :  0.43750.43750.0000  plane waves:    2015
 k-point 71 :  0.50000.43750.0000  plane waves:    2021
 k-point 72 :  -.43750.43750.0000  plane waves:    2024
 k-point 73 :  0.50000.50000.0000  plane waves:    2024

 maximum and minimum number of plane-waves per node :      2035     2001

 maximum number of plane-waves:      2035
 maximum index in each direction: 
   IXMAX=    9   IYMAX=    8   IZMAX=    7
   IXMIN=   -9   IYMIN=   -9   IZMIN=   -7

 WARNING: aliasing errors must be expected set NGX to  38 to avoid them
 WARNING: aliasing errors must be expected set NGY to  36 to avoid them
 WARNING: aliasing errors must be expected set NGZ to  30 to avoid them
 aliasing errors are usually negligible using standard VASP settings
 and one can safely disregard these warnings

 serial   3D FFT for wavefunctions
 parallel 3D FFT for charge:
    minimum data exchange during FFTs selected (reduces bandwidth)


 total amount of memory used by VASP on root node    46044. kBytes
========================================================================

   base      :      30000. kBytes
   nonl-proj :       9792. kBytes
   fftplans  :        274. kBytes
   grid      :       1021. kBytes
   one-center:         24. kBytes
   wavefun   :       4933. kBytes
 
 Broyden mixing: mesh for mixing (old mesh)
   NGX = 17   NGY = 17   NGZ = 15
  (NGX  = 40   NGY  = 40   NGZ  = 32)
  gives a total of   4335 points

 initial charge density was supplied:
 charge density of overlapping atoms calculated
 number of electron      32.0000000 magnetization 
 keeping initial charge density in first step


--------------------------------------------------------------------------------------------------------


 Maximum index for augmentation-charges          171 (set IRDMAX)


--------------------------------------------------------------------------------------------------------


 First call to EWALD:  gamma=   0.411
 Maximum number of real-space cells 3x 3x 3
 Maximum number of reciprocal cells 3x 3x 3

    FEWALD:  cpu time    0.00: real time    0.00


----------------------------------------- Iteration    1(   1)  ---------------------------------------


    POTLOK:  cpu time    0.01: real time    0.01
    SETDIJ:  cpu time    0.00: real time    0.00
     EDDAV:  cpu time    2.42: real time    2.43
 BZINTS: Fermi energy: 11.703302; 32.000000 electrons
         Band energy: -73.529230;  BLOECHL correction: -0.126750
       DOS:  cpu time    0.02: real time    0.02
    --------------------------------------------
      LOOP:  cpu time    2.44: real time    2.47

 eigenvalue-minimisations  :  3504
 total energy-change (2. order) : 0.1075282E+03  (-0.1606190E+04)
 number of electron      32.0000000 magnetization 
 augmentation part       32.0000000 magnetization 

 Free energy of the ion-electron system (eV)
  ---------------------------------------------------
  alpha Z        PSCENC =        65.15269163
  Ewald energy   TEWEN  =      -738.74955668
  -1/2 Hartree   DENC   =      -424.07806645
  -exchange  EXHF       =         0.00000000
  -V(xc)+E(xc)   XCENC  =       110.74882809
  PAW double counting   =       302.65154477     -311.85538214
  entropy T*S    EENTRO =         0.00000000
  eigenvalues    EBANDS =       -73.52923004
  atomic energy  EATOM  =      1177.18737338
  ---------------------------------------------------
  free energy    TOTEN  =       107.52820257 eV

  energy without entropy =      107.52820257  energy(sigma->0) =      107.52820257


--------------------------------------------------------------------------------------------------------


 E-fermi :  11.7033     XC(G=0):  -9.9841     alpha+bet :-10.0341


 k-point   1 :       0.0000    0.0000    0.0000
  band No.  band energies     occupation 
      1     -16.5236      2.00000
      2     -11.7068      2.00000
      3     -10.8346      2.00000
      4     -10.2782      2.00000
      5      -9.8287      2.00000
      6      -9.0241      2.00000
      7      -8.1102      2.00000
      8      -2.6214      2.00000
      9      -0.8013      2.00000
     10       1.9221      2.00000
     11       3.3408      2.00000
     12       5.2575      2.00000
     13       6.1582      2.00000
     14       7.7598      2.00000
     15       9.8902      2.00000
     16      11.3324      2.00000
     17      14.4157     -0.47984
     18      15.9496      0.00000
     19      16.7693      0.00000
     20      18.1059      0.00000
     21      18.7248      0.00000
     22      20.2895      0.00000
     23      21.9035      0.00000
     24      25.6576      0.00000

 k-point   2 :       0.0625    0.0000    0.0000
  band No.  band energies     occupation 
      1     -16.7786      2.00000
      2     -11.5672      2.00000
      3     -10.9415      2.00000
      4     -10.3875      2.00000
      5      -9.9193      2.00000
      6      -9.0769      2.00000
      7      -8.1241      2.00000
      8      -2.5470      2.00000
      9      -1.4480      2.00000
     10       1.9014      2.00000
     11       3.0803      2.00000
     12       5.0774      2.00000
     13       7.0266      2.00000
     14       7.6739      2.00000
     15       9.8127      2.00000
     16      10.6362      2.00000
     17      11.7550      0.20451
     18      13.4886      0.00000
     19      16.0094      0.00000
     20      17.2585      0.00000
     21      19.4124      0.00000
     22      20.3408      0.00000
     23      21.3118      0.00000
     24      24.8002      0.00000

 k-point   3 :       0.1250    0.0000    0.0000
  band No.  band energies     occupation 
      1     -16.8603      2.00000
      2     -12.1760      2.00000
      3     -10.8052      2.00000
      4     -10.0260      2.00000
      5      -9.0895      2.00000
      6      -8.3211      2.00000
      7      -7.4879      2.00000
      8      -2.3968      2.00000
      9      -1.8336      2.00000
     10       1.1966      2.00000
     11       3.3020      2.00000
     12       4.3371      2.00000
     13       6.9230      2.00000
     14       8.4615      2.00000
     15       9.5369      2.00000
     16      10.2922      2.00444
     17      11.7242      0.00000
     18      13.5636      0.00000
     19      16.1297      0.00000
     20      17.1188      0.00000
     21      18.2121      0.00000
     22      19.6660      0.00000
     23      24.0532      0.00000
     24      28.0386      0.00000

 k-point   4 :       0.1875    0.0000    0.0000
  band No.  band energies     occupation 
      1     -16.1759      2.00000
      2     -12.6431      2.00000
      3     -11.4249      2.00000
      4     -11.0793      2.00000
      5      -8.5465      2.00000
      6      -6.8964      2.00000
      7      -5.8785      2.00000
      8      -2.6073      2.00000
      9      -0.4008      2.00000
     10       1.5270      2.00000
     11       2.8035      2.00000
     12       4.7767      2.00000
     13       6.5070      2.00000
     14       7.5074      2.00000
     15       9.4661      2.00000
     16      10.8272      2.00333
     17      12.4140      0.00000
     18      14.6764      0.00000
     19      16.1122      0.00000
     20      17.4720      0.00000
     21      18.5677      0.00000
     22      19.9009      0.00000
     23      24.2482      0.00000
     24      26.7074      0.00000

 k-point   5 :       0.2500    0.0000    0.0000
  band No.  band energies     occupation 
      1     -16.0050      2.00000
      2     -13.2913      2.00000
      3     -11.7075      2.00000
      4     -11.2057      2.00000
      5      -8.2324      2.00000
      6      -7.0753      2.00000
      7      -5.9026      2.00000
      8      -1.9169      2.00000
      9       0.1005      2.00000
     10       0.5496      2.00000
     11       2.3100      2.00000
     12       3.7256      2.00000
     13       5.4877      2.00000
     14       7.2638      2.00000
     15       8.5884      2.00000
     16      10.0792      2.08575
     17      11.7721      0.00000
     18      14.4471      0.00000
     19      15.0297      0.00000
     20      17.3173      0.00000
     21      17.9987      0.00000
     22      19.1535      0.00000
     23      21.5409      0.00000
     24      27.4235      0.00000

 k-point   6 :       0.3125    0.0000    0.0000
  band No.  band energies     occupation 
      1     -16.1059      2.00000
      2     -14.2117      2.00000
      3     -11.5819      2.00000
      4     -10.9202      2.00000
      5      -8.0527      2.00000
      6      -6.1625      2.00000
      7      -4.7487      2.00000
      8      -2.8496      2.00000
      9      -2.2530      2.00000
     10       0.6490      2.00000
     11       1.8111      2.00000
     12       3.5025      2.00000
     13       4.7696      2.00000
     14       6.9494      2.00000
     15       9.3121      2.00000
     16      10.5850      2.01287
     17      14.2064      0.00000
     18      15.4702      0.00000
     19      16.3249      0.00000
     20      17.6830      0.00000
     21      18.6976      0.00000
     22      20.2140      0.00000
     23      21.2110      0.00000
     24      26.1847      0.00000

 k-point   7 :       0.3750    0.0000    0.0000
  band No.  band energies     occupation 
      1     -16.0128      2.00000
      2     -14.3010      2.00000
      3     -12.1358      2.00000
      4     -11.2844      2.00000
      5      -7.4548      2.00000
      6      -5.9129      2.00000
      7      -4.1953      2.00000
      8      -3.1441      2.00000
      9      -1.6162      2.00000
     10      -0.3657      2.00000
     11       1.7005      2.00000
     12       3.0389      2.00000
     13       5.1245      2.00000
     14       6.3220      2.00000
     15       9.7632      2.00000
     16      10.3547      2.00000
     17      12.4793      0.00000
     18      13.8970      0.00000
     19      16.5423      0.00000
     20      17.6824      0.00000
     21      19.3838      0.00000
     22      20.9092      0.00000
     23      24.5103      0.00000
     24      25.6994      0.00000

 k-point   8 :       0.4375    0.0000    0.0000
  band No.  band energies     occupation 
      1     -15.5897      2.00000
      2     -14.7546      2.00000
      3     -12.1864      2.00000
      4     -11.2679      2.00000
      5      -6.0178      2.00000
      6      -5.2361      2.00000
      7      -3.4469      2.00000
      8      -2.6873      2.00000
      9      -1.9374      2.00000
     10      -0.0801      2.00000
     11       1.1400      2.00000
     12       3.5888      2.00000
     13       5.3769      2.00000
     14       7.6274      2.00000
     15       9.0511      2.00000
     16      10.5165      2.16213
     17      12.9766      0.00000
     18      14.2989      0.00000
     19      16.2881      0.00000
     20      18.1206      0.00000
     21      19.6494      0.00000
     22      22.0956      0.00000
     23      22.6558      0.00000
     24      28.3606      0.00000

 k-point   9 :       0.5000    0.0000    0.0000
  band No.  band energies     occupation 
      1     -15.4102      2.00000
      2     -14.5851      2.00000
      3     -12.3534      2.00000
      4     -10.7560      2.00000
      5      -6.1491      2.00000
      6      -5.2340      2.00000
      7      -2.8259      2.00000
      8      -2.1356      2.00000
      9      -1.2460      2.00000
     10      -0.1557      2.00000
     11       1.4033      2.00000
     12       2.3848      2.00000
     13       5.0493      2.00000
     14       8.7294      2.00000
     15      10.4087      2.00000
     16      11.5763      1.71406
     17      12.8690      0.00000
     18      14.5352      0.00000
     19      16.2074      0.00000
     20      19.2277      0.00000
     21      21.1359      0.00000
     22      22.3509      0.00000
     23      22.7964      0.00000
     24      25.8515      0.00000

 k-point  10 :       0.0625    0.0625    0.0000
  band No.  band energies     occupation 
      1     -16.7225      2.00000
      2     -11.7242      2.00000
      3     -11.2503      2.00000
      4     -11.0261      2.00000
      5      -9.4011      2.00000
      6      -8.8365      2.00000
      7      -6.4736      2.00000
      8      -2.4953      2.00000
      9      -1.5811      2.00000
     10      -0.0409      2.00000
     11       2.1168      2.00000
     12       5.0722      2.00000
     13       5.8591      2.00000
     14       8.5749      2.00000
     15       9.4674      2.00000
     16      10.7755      2.14960
     17      11.7053      0.00000
     18      13.2469      0.00000
     19      15.7220      0.00000
     20      16.6160      0.00000
     21      18.2235      0.00000
     22      19.8329      0.00000
     23      21.4962      0.00000
     24      24.5667      0.00000

 k-point  11 :       0.1250    0.0625    0.0000
  band No.  band energies     occupation 
      1     -16.6630      2.00000
      2     -12.6259      2.00000
      3     -11.2221      2.00000
      4     -10.0810      2.00000
      5      -9.3524      2.00000
      6      -7.6176      2.00000
      7      -5.5104      2.00000
      8      -2.6367      2.00000
      9      -0.5026      2.00000
     10       1.7027      2.00000
     11       2.9918      2.00000
     12       4.8873      2.00000
     13       5.9576      2.00000
     14       8.4539      2.00000
     15      10.1744      2.00000
     16      11.7207      1.79277
     17      14.7447      0.00000
     18      16.0834      0.00000
     19      16.3768      0.00000
     20      17.4760      0.00000
     21      19.1953      0.00000
     22      21.8379      0.00000
     23      23.1994      0.00000
     24      27.8845      0.00000

 k-point  12 :       0.1875    0.0625    0.0000
  band No.  band energies     occupation 
      1     -16.6663      2.00000
      2     -12.9386      2.00000
      3     -11.6863      2.00000
      4     -10.4903      2.00000
      5      -9.3386      2.00000
      6      -7.2020      2.00000
      7      -4.8345      2.00000
      8      -2.1160      2.00000
      9      -0.5249      2.00000
     10       1.9838      2.00000
     11       2.5669      2.00000
     12       4.1497      2.00000
     13       5.9198      2.00000
     14       7.6069      2.00000
     15      10.0767      2.00000
     16      10.9713      2.00436
     17      13.0730      0.00000
     18      15.1398      0.00000
     19      16.4646      0.00000
     20      19.6167      0.00000
     21      19.9547      0.00000
     22      22.3380      0.00000
     23      24.0485      0.00000
     24      27.3340      0.00000

 k-point  13 :       0.2500    0.0625    0.0000
  band No.  band energies     occupation 
      1     -16.3080      2.00000
      2     -13.5719      2.00000
      3     -12.2460      2.00000
      4     -10.1426      2.00000
      5      -8.3868      2.00000
      6      -7.2878      2.00000
      7      -4.1311      2.00000
      8      -2.1050      2.00000
      9      -1.3195      2.00000
     10      -0.4243      2.00000
     11       0.8714      2.00000
     12       2.0852      2.00000
     13       4.7763      2.00000
     14       5.8708      2.00000
     15       8.3429      2.00000
     16       9.9658      2.00000
     17      12.1027      0.03808
     18      13.3850      0.00000
     19      14.5951      0.00000
     20      16.9132      0.00000
     21      20.1126      0.00000
     22      20.6611      0.00000
     23      23.1855      0.00000
     24      25.8679      0.00000

 k-point  14 :       0.3125    0.0625    0.0000
  band No.  band energies     occupation 
      1     -15.6134      2.00000
      2     -13.9612      2.00000
      3     -12.3177      2.00000
      4     -11.0761      2.00000
      5      -6.7125      2.00000
      6      -5.0350      2.00000
      7      -4.3702      2.00000
      8      -3.0974      2.00000
      9      -1.4878      2.00000
     10       0.2801      2.00000
     11       0.8893      2.00000
     12       2.8717      2.00000
     13       4.2807      2.00000
     14       7.6585      2.00000
     15       9.2439      2.00000
     16      10.1903      2.00000
     17      12.3677     -0.07499
     18      13.5427      0.00000
     19      15.7908      0.00000
     20      16.7050      0.00000
     21      18.3895      0.00000
     22      20.1010      0.00000
     23      22.0500      0.00000
     24      24.2168      0.00000

 k-point  15 :       0.3750    0.0625    0.0000
  band No.  band energies     occupation 
      1     -16.1051      2.00000
      2     -14.6502      2.00000
      3     -11.8777      2.00000
      4     -11.0455      2.00000
      5      -6.5970      2.00000
      6      -5.2476      2.00000
      7      -3.9047      2.00000
      8      -2.9291      2.00000
      9      -1.3220      2.00000
     10      -0.1579      2.00000
     11       1.3229      2.00000
     12       1.9761      2.00000
     13       4.8084      2.00000
     14       6.6692      2.00000
     15       9.9998      2.00000
     16      11.5626      1.85192
     17      13.3533      0.00000
     18      14.3572      0.00000
     19      15.9585      0.00000
     20      17.2524      0.00000
     21      19.0112      0.00000
     22      20.9099      0.00000
     23      22.6485      0.00000
     24      24.8648      0.00000

 k-point  16 :       0.4375    0.0625    0.0000
  band No.  band energies     occupation 
      1     -14.9086      2.00000
      2     -14.5340      2.00000
      3     -12.4282      2.00000
      4     -11.0377      2.00000
      5      -6.5754      2.00000
      6      -5.8286      2.00000
      7      -4.8223      2.00000
      8      -3.0373      2.00000
      9      -1.5430      2.00000
     10      -0.2067      2.00000
     11       1.7004      2.00000
     12       2.6642      2.00000
     13       3.5379      2.00000
     14       6.9433      2.00000
     15       9.8622      2.00000
     16      12.1410      0.42863
     17      13.9566      0.00000
     18      14.7375      0.00000
     19      16.5133      0.00000
     20      18.4194      0.00000
     21      19.7751      0.00000
     22      20.3349      0.00000
     23      22.7358      0.00000
     24      26.5249      0.00000

 k-point  17 :       0.5000    0.0625    0.0000
  band No.  band energies     occupation 
      1     -15.6400      2.00000
      2     -13.9817      2.00000
      3     -12.7781      2.00000
      4     -11.7514      2.00000
      5      -7.1683      2.00000
      6      -5.4299      2.00000
      7      -4.4851      2.00000
      8      -1.6798      2.00000
      9      -0.9080      2.00000
     10       0.6448      2.00000
     11       1.8468      2.00000
     12       2.7743      2.00000
     13       4.9986      2.00000
     14       6.3654      2.00000
     15       9.4162      2.00000
     16      11.1339      2.07422
     17      12.4753      0.00000
     18      14.3753      0.00000
     19      15.2280      0.00000
     20      16.3778      0.00000
     21      18.7580      0.00000
     22      21.4414      0.00000
     23      23.6396      0.00000
     24      25.7380      0.00000

 k-point  18 :      -0.4375    0.0625    0.0000
  band No.  band energies     occupation 
      1     -15.2916      2.00000
      2     -14.1966      2.00000
      3     -11.6725      2.00000
      4      -9.8487      2.00000
      5      -6.3302      2.00000
      6      -5.1500      2.00000
      7      -3.1384      2.00000
      8      -2.4514      2.00000
      9      -0.1325      2.00000
     10       0.1899      2.00000
     11       1.4787      2.00000
     12       2.7455      2.00000
     13       5.3716      2.00000
     14       7.8173      2.00000
     15      10.6802      2.00000
     16      11.4586      1.99582
     17      12.6723      0.00000
     18      13.5047      0.00000
     19      15.6873      0.00000
     20      17.5293      0.00000
     21      18.8984      0.00000
     22      20.5051      0.00000
     23      23.0643      0.00000
     24      26.5412      0.00000

 k-point  19 :      -0.3750    0.0625    0.0000
  band No.  band energies     occupation 
      1     -16.2354      2.00000
      2     -13.8142      2.00000
      3     -11.9663      2.00000
      4     -10.4266      2.00000
      5      -7.4132      2.00000
      6      -6.0121      2.00000
      7      -5.0141      2.00000
      8      -2.4033      2.00000
      9      -2.1025      2.00000
     10      -1.0454      2.00000
     11       0.5766      2.00000
     12       2.7010      2.00000
     13       4.3894      2.00000
     14       6.4349      2.00000
     15       8.0582      2.00000
     16      10.1378      2.08598
     17      12.0000      0.00000
     18      14.0117      0.00000
     19      16.2983      0.00000
     20      17.7470      0.00000
     21      19.1331      0.00000
     22      21.0202      0.00000
     23      22.2624      0.00000
     24      27.4297      0.00000

 k-point  20 :      -0.3125    0.0625    0.0000
  band No.  band energies     occupation 
      1     -16.0426      2.00000
      2     -13.2559      2.00000
      3     -12.6450      2.00000
      4     -10.7314      2.00000
      5      -8.2321      2.00000
      6      -6.2868      2.00000
      7      -3.9006      2.00000
      8      -2.1715      2.00000
      9      -0.1507      2.00000
     10       1.0992      2.00000
     11       2.2715      2.00000
     12       3.9317      2.00000
     13       4.8163      2.00000
     14       8.8141      2.00000
     15       9.6311      2.00000
     16      12.4654      0.78561
     17      13.3857      0.00000
     18      16.1627      0.00000
     19      16.8056      0.00000
     20      18.2419      0.00000
     21      18.8279      0.00000
     22      21.2712      0.00000
     23      22.3919      0.00000
     24      24.9329      0.00000

 k-point  21 :      -0.2500    0.0625    0.0000
  band No.  band energies     occupation 
      1     -16.0860      2.00000
      2     -12.8434      2.00000
      3     -12.0666      2.00000
      4     -10.3617      2.00000
      5      -8.3596      2.00000
      6      -7.0495      2.00000
      7      -5.6404      2.00000
      8      -3.0731      2.00000
      9      -1.8141      2.00000
     10       1.8580      2.00000
     11       2.3635      2.00000
     12       4.2426      2.00000
     13       5.9945      2.00000
     14       8.8508      2.00000
     15       9.9095      2.00000
     16      11.2987      1.91805
     17      13.3589     -0.04991
     18      14.9710      0.00000
     19      16.7934      0.00000
     20      17.4227      0.00000
     21      19.3602      0.00000
     22      20.8189      0.00000
     23      24.5871      0.00000
     24      25.6731      0.00000

 k-point  22 :      -0.1875    0.0625    0.0000
  band No.  band energies     occupation 
      1     -16.5762      2.00000
      2     -12.7903      2.00000
      3     -11.7974      2.00000
      4     -10.2096      2.00000
      5      -9.1707      2.00000
      6      -7.7462      2.00000
      7      -6.4808      2.00000
      8      -2.7025      2.00000
      9       0.3122      2.00000
     10       1.2447      2.00000
     11       2.4826      2.00000
     12       3.9029      2.00000
     13       5.5458      2.00000
     14       7.4999      2.00000
     15       8.6019      2.00000
     16      10.5858      2.00000
     17      12.7183     -0.03666
     18      14.4068      0.00000
     19      15.4663      0.00000
     20      17.4628      0.00000
     21      18.1625      0.00000
     22      19.9748      0.00000
     23      22.6427      0.00000
     24      24.2869      0.00000

 k-point  23 :      -0.1250    0.0625    0.0000
  band No.  band energies     occupation 
      1     -16.5771      2.00000
      2     -12.2066      2.00000
      3     -11.3945      2.00000
      4     -10.5864      2.00000
      5      -9.2786      2.00000
      6      -8.1065      2.00000
      7      -7.1765      2.00000
      8      -3.1868      2.00000
      9      -0.9219      2.00000
     10       0.5847      2.00000
     11       2.3501      2.00000
     12       3.4001      2.00000
     13       6.0619      2.00000
     14       8.4120      2.00000
     15       9.4890      2.00000
     16      10.9180      2.00000
     17      11.7838      0.18153
     18      13.8187      0.00000
     19      15.6050      0.00000
     20      17.1086      0.00000
     21      18.3013      0.00000
     22      20.3502      0.00000
     23      22.7116      0.00000
     24      26.6001      0.00000

 k-point  24 :      -0.0625    0.0625    0.0000
  band No.  band energies     occupation 
      1     -16.6360      2.00000
      2     -11.1291      2.00000
      3     -10.7454      2.00000
      4     -10.1159      2.00000
      5      -9.5195      2.00000
      6      -8.3117      2.00000
      7      -7.9007      2.00000
      8      -2.2883      2.00000
      9       0.1176      2.00000
     10       1.5501      2.00000
     11       2.7762      2.00000
     12       5.1505      2.00000
     13       6.5428      2.00000
     14       7.3247      2.00000
     15       9.0772      2.00000
     16       9.5730      2.00000
     17      11.4016      1.70807
     18      13.3187      0.00000
     19      15.5499      0.00000
     20      18.0720      0.00000
     21      19.0876      0.00000
     22      21.5286      0.00000
     23      22.6918      0.00000
     24      25.8435      0.00000

 k-point  25 :       0.1250    0.1250    0.0000
  band No.  band energies     occupation 
      1     -16.3863      2.00000
      2     -12.4286      2.00000
      3     -11.6405      2.00000
      4     -10.0249      2.00000
      5      -8.6688      2.00000
      6      -7.2476      2.00000
      7      -6.4771      2.00000
      8      -1.7733      2.00000
      9      -0.9070      2.00000
     10       1.5261      2.00000
     11       3.3297      2.00000
     12       4.6829      2.00000
     13       6.4338      2.00000
     14       7.3755      2.00000
     15       9.2930      2.00000
     16      11.0360      2.15117
     17      12.2262      0.00000
     18      14.3140      0.00000
     19      16.1791      0.00000
     20      17.6764      0.00000
     21      19.1198      0.00000
     22      22.2197      0.00000
     23      23.0579      0.00000
     24      24.8899      0.00000

 k-point  26 :       0.1875    0.1250    0.0000
  band No.  band energies     occupation 
      1     -15.8330      2.00000
      2     -13.3931      2.00000
      3     -12.6053      2.00000
      4      -9.6488      2.00000
      5      -7.4395      2.00000
      6      -6.7535      2.00000
      7      -4.5069      2.00000
      8      -3.2195      2.00000
      9      -1.3272      2.00000
     10      -0.1356      2.00000
     11       1.6348      2.00000
     12       3.3515      2.00000
     13       3.9028      2.00000
     14       6.7721      2.00000
     15       8.2355      2.00000
     16      10.5085      2.00000
     17      12.7995     -0.13540
     18      14.5047      0.00000
     19      15.7492      0.00000
     20      16.2776      0.00000
     21      18.5583      0.00000
     22      21.5464      0.00000
     23      23.3095      0.00000
     24      25.6095      0.00000

 k-point  27 :       0.2500    0.1250    0.0000
  band No.  band energies     occupation 
      1     -16.2326      2.00000
      2     -14.1046      2.00000
      3     -13.0614      2.00000
      4     -10.3659      2.00000
      5      -7.4458      2.00000
      6      -6.6221      2.00000
      7      -4.5736      2.00000
      8      -1.9899      2.00000
      9      -1.2517      2.00000
     10      -0.0907      2.00000
     11       1.4097      2.00000
     12       2.6084      2.00000
     13       3.3868      2.00000
     14       5.6860      2.00000
     15       6.9435      2.00000
     16       9.1981      2.00000
     17      11.1920      1.89491
     18      13.8128      0.00000
     19      14.7387      0.00000
     20      17.6228      0.00000
     21      18.7595      0.00000
     22      21.9212      0.00000
     23      23.2642      0.00000
     24      24.8579      0.00000

 k-point  28 :       0.3125    0.1250    0.0000
  band No.  band energies     occupation 
      1     -16.1381      2.00000
      2     -13.8479      2.00000
      3     -12.5144      2.00000
      4     -10.5883      2.00000
      5      -7.6265      2.00000
      6      -5.3825      2.00000
      7      -4.5263      2.00000
      8      -2.7698      2.00000
      9      -1.0897      2.00000
     10      -0.3096      2.00000
     11       0.4533      2.00000
     12       2.8705      2.00000
     13       4.4927      2.00000
     14       6.9163      2.00000
     15       8.7118      2.00000
     16      10.6506      2.00000
     17      11.7540      0.29372
     18      13.0179      0.00000
     19      14.5285      0.00000
     20      17.7350      0.00000
     21      18.9638      0.00000
     22      20.5483      0.00000
     23      23.2304      0.00000
     24      27.9750      0.00000

 k-point  29 :       0.3750    0.1250    0.0000
  band No.  band energies     occupation 
      1     -14.7437      2.00000
      2     -13.8917      2.00000
      3     -13.0629      2.00000
      4      -9.8258      2.00000
      5      -6.9028      2.00000
      6      -4.1104      2.00000
      7      -2.4537      2.00000
      8      -1.5387      2.00000
      9      -0.3905      2.00000
     10       0.2219      2.00000
     11       1.0476      2.00000
     12       3.6071      2.00000
     13       5.9298      2.00000
     14       7.7143      2.00000
     15      10.8828      2.00000
     16      11.5944      1.63398
     17      12.5909      0.00000
     18      14.1084      0.00000
     19      15.6157      0.00000
     20      18.1768      0.00000
     21      19.2532      0.00000
     22      21.7369      0.00000
     23      22.1845      0.00000
     24      25.0401      0.00000

 k-point  30 :       0.4375    0.1250    0.0000
  band No.  band energies     occupation 
      1     -15.3087      2.00000
      2     -14.7218      2.00000
      3     -12.4023      2.00000
      4     -10.0399      2.00000
      5      -7.3092      2.00000
      6      -5.9527      2.00000
      7      -5.2152      2.00000
      8      -2.7033      2.00000
      9      -1.7238      2.00000
     10      -0.8368      2.00000
     11       1.0898      2.00000
     12       2.6601      2.00000
     13       4.2587      2.00000
     14       5.0440      2.00000
     15       9.3375      2.00000
     16      10.6764      2.36232
     17      11.7422      0.00000
     18      12.5521      0.00000
     19      14.6856      0.00000
     20      17.4337      0.00000
     21      20.6752      0.00000
     22      22.6824      0.00000
     23      24.0070      0.00000
     24      28.1933      0.00000

 k-point  31 :       0.5000    0.1250    0.0000
  band No.  band energies     occupation 
      1     -15.7663      2.00000
      2     -13.2811      2.00000
      3     -12.1328      2.00000
      4     -10.2804      2.00000
      5      -7.1444      2.00000
      6      -5.6288      2.00000
      7      -4.2023      2.00000
      8      -1.9457      2.00000
      9      -1.0651      2.00000
     10       0.6870      2.00000
     11       1.3053      2.00000
     12       2.5230      2.00000
     13       5.3547      2.00000
     14       5.6017      2.00000
     15       8.8165      2.00000
     16      11.7853      1.69403
     17      12.9645     -0.03639
     18      15.5121      0.00000
     19      16.1015      0.00000
     20      18.1551      0.00000
     21      19.8553      0.00000
     22      21.2941      0.00000
     23      25.5104      0.00000
     24      29.6239      0.00000

 k-point  32 :      -0.4375    0.1250    0.0000
  band No.  band energies     occupation 
      1     -15.4741      2.00000
      2     -14.0521      2.00000
      3     -12.2768      2.00000
      4      -9.2249      2.00000
      5      -7.3380      2.00000
      6      -5.6330      2.00000
      7      -3.7576      2.00000
      8      -1.8129      2.00000
      9      -1.0284      2.00000
     10       0.5919      2.00000
     11       0.9446      2.00000
     12       2.4081      2.00000
     13       3.3790      2.00000
     14       7.9237      2.00000
     15       9.5183      2.00000
     16      10.4352      2.03598
     17      12.6895      0.00036
     18      14.0667      0.00000
     19      15.5339      0.00000
     20      17.9205      0.00000
     21      20.4353      0.00000
     22      22.8044      0.00000
     23      25.1494      0.00000
     24      27.6808      0.00000

 k-point  33 :      -0.3750    0.1250    0.0000
  band No.  band energies     occupation 
      1     -15.5485      2.00000
      2     -14.0862      2.00000
      3     -12.6333      2.00000
      4     -10.0861      2.00000
      5      -8.2537      2.00000
      6      -6.2257      2.00000
      7      -4.9258      2.00000
      8      -2.7372      2.00000
      9      -1.2217      2.00000
     10       0.9885      2.00000
     11       2.1191      2.00000
     12       4.9788      2.00000
     13       6.0231      2.00000
     14       7.3116      2.00000
     15       8.7474      2.00000
     16      11.3456      1.90609
     17      12.8905      0.00000
     18      14.3293      0.00000
     19      15.3404      0.00000
     20      17.9120      0.00000
     21      19.0900      0.00000
     22      20.3959      0.00000
     23      22.3164      0.00000
     24      25.2323      0.00000

 k-point  34 :      -0.3125    0.1250    0.0000
  band No.  band energies     occupation 
      1     -15.8883      2.00000
      2     -12.9341      2.00000
      3     -12.2163      2.00000
      4     -10.0407      2.00000
      5      -7.7115      2.00000
      6      -6.2004      2.00000
      7      -5.5691      2.00000
      8      -2.4603      2.00000
      9      -1.1563      2.00000
     10       0.7712      2.00000
     11       3.3041      2.00000
     12       3.5872      2.00000
     13       4.7083      2.00000
     14       7.8833      2.00000
     15       9.1175      2.00000
     16       9.7972      2.13116
     17      12.2968     -0.03051
     18      14.8933      0.00000
     19      16.0762      0.00000
     20      17.0481      0.00000
     21      18.3060      0.00000
     22      20.1553      0.00000
     23      23.6351      0.00000
     24      24.6955      0.00000

 k-point  35 :      -0.2500    0.1250    0.0000
  band No.  band energies     occupation 
      1     -16.2892      2.00000
      2     -12.6814      2.00000
      3     -12.3791      2.00000
      4     -10.4996      2.00000
      5      -8.5869      2.00000
      6      -6.2213      2.00000
      7      -4.9984      2.00000
      8      -1.9565      2.00000
      9      -0.9971      2.00000
     10       0.7154      2.00000
     11       2.3915      2.00000
     12       4.3977      2.00000
     13       5.6379      2.00000
     14       7.5264      2.00000
     15       8.1161      2.00000
     16       9.8208      2.00000
     17      11.5011      0.50518
     18      15.5514      0.00000
     19      16.5457      0.00000
     20      17.5592      0.00000
     21      18.7733      0.00000
     22      21.4615      0.00000
     23      23.6654      0.00000
     24      24.2848      0.00000

 k-point  36 :      -0.1875    0.1250    0.0000
  band No.  band energies     occupation 
      1     -16.6964      2.00000
      2     -12.3581      2.00000
      3     -11.5639      2.00000
      4     -10.5490      2.00000
      5      -8.7811      2.00000
      6      -6.9541      2.00000
      7      -5.2775      2.00000
      8      -1.2004      2.00000
      9       0.0494      2.00000
     10       1.5693      2.00000
     11       3.4166      2.00000
     12       4.2487      2.00000
     13       6.4380      2.00000
     14       7.5213      2.00000
     15       8.9285      2.00000
     16       9.9489      2.00000
     17      12.2251     -0.01254
     18      13.9040      0.00000
     19      15.7125      0.00000
     20      17.3853      0.00000
     21      19.6275      0.00000
     22      21.7647      0.00000
     23      24.2720      0.00000
     24      26.8659      0.00000

 k-point  37 :      -0.1250    0.1250    0.0000
  band No.  band energies     occupation 
      1     -16.5914      2.00000
      2     -12.0453      2.00000
      3     -11.0240      2.00000
      4     -10.6291      2.00000
      5      -9.3524      2.00000
      6      -8.7203      2.00000
      7      -7.5581      2.00000
      8      -2.6135      2.00000
      9      -0.7144      2.00000
     10       1.2344      2.00000
     11       2.7530      2.00000
     12       4.6357      2.00000
     13       5.1527      2.00000
     14       7.8299      2.00000
     15       8.4932      2.00000
     16      10.1474      2.00000
     17      12.1831     -0.11232
     18      13.0499      0.00000
     19      15.3951      0.00000
     20      17.4547      0.00000
     21      18.3741      0.00000
     22      20.7190      0.00000
     23      23.0561      0.00000
     24      26.3076      0.00000

 k-point  38 :       0.1875    0.1875    0.0000
  band No.  band energies     occupation 
      1     -15.6874      2.00000
      2     -13.2365      2.00000
      3     -12.8783      2.00000
      4     -10.0932      2.00000
      5      -8.3418      2.00000
      6      -6.2953      2.00000
      7      -5.3605      2.00000
      8      -2.1509      2.00000
      9      -1.5448      2.00000
     10       0.5066      2.00000
     11       1.7915      2.00000
     12       2.4897      2.00000
     13       4.8809      2.00000
     14       7.2609      2.00000
     15       8.5810      2.00000
     16      11.1709      2.00000
     17      11.5270      1.46579
     18      13.1941      0.00000
     19      15.4584      0.00000
     20      17.8089      0.00000
     21      18.3420      0.00000
     22      20.7491      0.00000
     23      23.3762      0.00000
     24      25.7963      0.00000

 k-point  39 :       0.2500    0.1875    0.0000
  band No.  band energies     occupation 
      1     -16.0231      2.00000
      2     -13.6810      2.00000
      3     -13.2988      2.00000
      4      -9.3327      2.00000
      5      -8.6209      2.00000
      6      -4.9697      2.00000
      7      -4.5535      2.00000
      8      -2.3496      2.00000
      9      -1.0378      2.00000
     10      -0.5705      2.00000
     11       0.6317      2.00000
     12       1.6058      2.00000
     13       4.0313      2.00000
     14       5.7880      2.00000
     15       8.5186      2.00000
     16       9.4029      2.00000
     17      11.7963      0.42218
     18      14.7095      0.00000
     19      16.3778      0.00000
     20      17.1758      0.00000
     21      19.9291      0.00000
     22      22.4839      0.00000
     23      23.8036      0.00000
     24      26.0456      0.00000

 k-point  40 :       0.3125    0.1875    0.0000
  band No.  band energies     occupation 
      1     -15.3423      2.00000
      2     -14.7402      2.00000
      3     -12.8895      2.00000
      4      -9.7233      2.00000
      5      -7.0299      2.00000
      6      -4.6584      2.00000
      7      -3.5859      2.00000
      8      -2.3300      2.00000
      9      -1.3447      2.00000
     10       0.0403      2.00000
     11       0.7174      2.00000
     12       2.0990      2.00000
     13       3.7408      2.00000
     14       7.3837      2.00000
     15       8.5952      2.00000
     16      11.1279      2.01468
     17      12.2341     -0.02783
     18      14.3519      0.00000
     19      15.5742      0.00000
     20      18.0500      0.00000
     21      20.0330      0.00000
     22      21.0524      0.00000
     23      22.4733      0.00000
     24      24.8911      0.00000

 k-point  41 :       0.3750    0.1875    0.0000
  band No.  band energies     occupation 
      1     -15.7263      2.00000
      2     -15.0662      2.00000
      3     -13.2419      2.00000
      4      -9.7820      2.00000
      5      -6.7551      2.00000
      6      -5.4364      2.00000
      7      -3.0070      2.00000
      8      -1.4154      2.00000
      9      -0.5034      2.00000
     10       0.2153      2.00000
     11       1.5702      2.00000
     12       3.2117      2.00000
     13       4.8117      2.00000
     14       6.6249      2.00000
     15       9.9176      2.00000
     16      12.2504      0.39143
     17      13.2980     -0.05342
     18      14.2089      0.00000
     19      17.5312      0.00000
     20      18.5186      0.00000
     21      21.5109      0.00000
     22      22.2253      0.00000
     23      24.2593      0.00000
     24      26.7067      0.00000

 k-point  42 :       0.4375    0.1875    0.0000
  band No.  band energies     occupation 
      1     -15.6139      2.00000
      2     -14.4360      2.00000
      3     -13.5287      2.00000
      4      -8.9924      2.00000
      5      -6.4693      2.00000
      6      -5.4639      2.00000
      7      -2.7660      2.00000
      8      -1.8664      2.00000
      9      -0.3173      2.00000
     10       0.6397      2.00000
     11       1.8871      2.00000
     12       4.2334      2.00000
     13       4.7068      2.00000
     14       6.6528      2.00000
     15       9.5295      2.00000
     16      11.6458      1.59095
     17      12.2463      0.08770
     18      13.3428      0.00000
     19      14.7804      0.00000
     20      16.7927      0.00000
     21      18.9716      0.00000
     22      22.5638      0.00000
     23      24.3381      0.00000
     24      25.2741      0.00000

 k-point  43 :       0.5000    0.1875    0.0000
  band No.  band energies     occupation 
      1     -16.3207      2.00000
      2     -14.6122      2.00000
      3     -13.4978      2.00000
      4     -10.0405      2.00000
      5      -8.2560      2.00000
      6      -5.2588      2.00000
      7      -4.4071      2.00000
      8      -2.7206      2.00000
      9      -1.1919      2.00000
     10       0.0914      2.00000
     11       0.4160      2.00000
     12       2.1516      2.00000
     13       3.4895      2.00000
     14       6.2152      2.00000
     15       7.4132      2.00000
     16       9.2851      2.21506
     17      10.6139      1.76224
     18      14.0515      0.00000
     19      16.7145      0.00000
     20      17.9240      0.00000
     21      18.6061      0.00000
     22      20.6545      0.00000
     23      23.8346      0.00000
     24      27.0178      0.00000

 k-point  44 :      -0.4375    0.1875    0.0000
  band No.  band energies     occupation 
      1     -15.4119      2.00000
      2     -13.9780      2.00000
      3     -12.6214      2.00000
      4     -10.1050      2.00000
      5      -8.1995      2.00000
      6      -6.0996      2.00000
      7      -4.6155      2.00000
      8      -2.0334      2.00000
      9      -0.7803      2.00000
     10       0.3772      2.00000
     11       1.9685      2.00000
     12       3.1568      2.00000
     13       5.0540      2.00000
     14       5.5847      2.00000
     15       7.7405      2.00000
     16      10.3748      2.00000
     17      12.2413      0.08854
     18      13.1491      0.00000
     19      15.7152      0.00000
     20      18.0714      0.00000
     21      20.0245      0.00000
     22      21.1136      0.00000
     23      25.5043      0.00000
     24      26.5354      0.00000

 k-point  45 :      -0.3750    0.1875    0.0000
  band No.  band energies     occupation 
      1     -15.9882      2.00000
      2     -13.8137      2.00000
      3     -13.6403      2.00000
      4      -9.9328      2.00000
      5      -8.2890      2.00000
      6      -6.0176      2.00000
      7      -4.4752      2.00000
      8      -3.2046      2.00000
      9      -0.8226      2.00000
     10       0.2024      2.00000
     11       1.1597      2.00000
     12       2.7974      2.00000
     13       3.8185      2.00000
     14       5.4724      2.00000
     15       8.2536      2.00000
     16      10.8192      2.00000
     17      12.9454      0.00000
     18      14.7048      0.00000
     19      15.0612      0.00000
     20      18.8311      0.00000
     21      19.3386      0.00000
     22      21.5641      0.00000
     23      23.8872      0.00000
     24      27.8075      0.00000

 k-point  46 :      -0.3125    0.1875    0.0000
  band No.  band energies     occupation 
      1     -16.2605      2.00000
      2     -13.2504      2.00000
      3     -12.3917      2.00000
      4     -10.7116      2.00000
      5      -8.9005      2.00000
      6      -6.5938      2.00000
      7      -5.1133      2.00000
      8      -2.0069      2.00000
      9      -0.6862      2.00000
     10       0.3275      2.00000
     11       1.0735      2.00000
     12       2.4466      2.00000
     13       4.7790      2.00000
     14       7.0075      2.00000
     15       8.3125      2.00000
     16       9.9307      2.05409
     17      12.0762     -0.00716
     18      13.6450      0.00000
     19      14.7552      0.00000
     20      16.8695      0.00000
     21      17.3588      0.00000
     22      19.8982      0.00000
     23      21.1183      0.00000
     24      24.5215      0.00000

 k-point  47 :      -0.2500    0.1875    0.0000
  band No.  band energies     occupation 
      1     -17.0215      2.00000
      2     -13.0620      2.00000
      3     -11.5232      2.00000
      4      -9.3398      2.00000
      5      -8.5087      2.00000
      6      -5.9933      2.00000
      7      -5.2541      2.00000
      8      -2.5227      2.00000
      9      -0.9087      2.00000
     10       1.5787      2.00000
     11       2.5489      2.00000
     12       4.2092      2.00000
     13       6.1645      2.00000
     14       7.2838      2.00000
     15       8.6793      2.00000
     16      10.6528      2.06212
     17      12.5560     -0.06591
     18      14.5284      0.00000
     19      15.9610      0.00000
     20      17.4921      0.00000
     21      19.1837      0.00000
     22      20.5999      0.00000
     23      22.8729      0.00000
     24      27.5010      0.00000

 k-point  48 :      -0.1875    0.1875    0.0000
  band No.  band energies     occupation 
      1     -16.8675      2.00000
      2     -12.7945      2.00000
      3     -11.1313      2.00000
      4      -9.6778      2.00000
      5      -9.0838      2.00000
      6      -8.1759      2.00000
      7      -6.8410      2.00000
      8      -2.2581      2.00000
      9      -1.1309      2.00000
     10       0.5103      2.00000
[...]
      9      -3.4922      2.00000
     10      -2.2309      2.00000
     11      -1.8375      2.00000
     12      -1.8019      2.00000
     13      -0.5722      2.00000
     14      -0.5409      2.00000
     15       0.6016      2.00000
     16       2.5755      2.00000
     17       5.9043      0.00000
     18       8.1487      0.00000
     19       8.1881      0.00000
     20       9.7799      0.00000
     21      10.0512      0.00000
     22      11.4706      0.00000
     23      12.3686      0.00000
     24      12.7918      0.00000

 k-point  63 :      -0.3750    0.3125    0.0000
  band No.  band energies     occupation 
      1     -14.9215      2.00000
      2     -13.0803      2.00000
      3     -11.6551      2.00000
      4     -10.6356      2.00000
      5      -7.7858      2.00000
      6      -6.8276      2.00000
      7      -5.4578      2.00000
      8      -4.4816      2.00000
      9      -3.7012      2.00000
     10      -2.4461      2.00000
     11      -1.7409      2.00000
     12      -1.3735      2.00000
     13      -0.3784      2.00000
     14      -0.1805      2.00000
     15       1.1356      2.00000
     16       2.1067      2.00000
     17       6.3482      0.00000
     18       7.4607      0.00000
     19       7.9088      0.00000
     20       9.4092      0.00000
     21      10.2825      0.00000
     22      12.0091      0.00000
     23      12.1651      0.00000
     24      12.5817      0.00000

 k-point  64 :      -0.3125    0.3125    0.0000
  band No.  band energies     occupation 
      1     -15.0614      2.00000
      2     -12.8539      2.00000
      3     -11.0958      2.00000
      4     -11.0958      2.00000
      5      -7.5595      2.00000
      6      -7.5595      2.00000
      7      -5.8807      2.00000
      8      -3.8561      2.00000
      9      -3.8561      2.00000
     10      -2.6082      2.00000
     11      -1.7791      2.00000
     12      -0.9864      2.00000
     13      -0.1388      2.00000
     14       0.0538      2.00000
     15       1.6558      2.00000
     16       1.6558      2.00000
     17       6.7902      0.00000
     18       6.7902      0.00000
     19       7.7291      0.00000
     20       8.9992      0.00000
     21      10.5710      0.00000
     22      11.8535      0.00000
     23      12.5325      0.00000
     24      12.9024      0.00000

 k-point  65 :       0.3750    0.3750    0.0000
  band No.  band energies     occupation 
      1     -13.8800      2.00000
      2     -13.8800      2.00000
      3     -13.1494      2.00000
      4      -9.1516      2.00000
      5      -8.1377      2.00000
      6      -6.4328      2.00000
      7      -4.4473      2.00000
      8      -3.4534      2.00000
      9      -3.4534      2.00000
     10      -3.0338      2.00000
     11      -1.9269      2.00000
     12      -1.9269      2.00000
     13      -1.2538      2.00000
     14      -1.2538      2.00000
     15      -0.4348      2.00000
     16       3.6573      2.00000
     17       4.8939      0.00000
     18       9.2554      0.00000
     19       9.2554      0.00000
     20       9.7522      0.00000
     21      10.2071      0.00000
     22      11.0887      0.00000
     23      11.0887      0.00000
     24      13.5957      0.00000

 k-point  66 :       0.4375    0.3750    0.0000
  band No.  band energies     occupation 
      1     -14.1793      2.00000
      2     -13.8110      2.00000
      3     -12.7203      2.00000
      4      -9.6721      2.00000
      5      -7.8186      2.00000
      6      -6.0879      2.00000
      7      -5.0371      2.00000
      8      -3.7869      2.00000
      9      -3.4922      2.00000
     10      -3.0048      2.00000
     11      -1.7263      2.00000
     12      -1.5939      2.00000
     13      -1.3785      2.00000
     14      -1.1776      2.00000
     15       0.0369      2.00000
     16       3.1419      2.00000
     17       5.4044      0.00000
     18       8.8666      0.00000
     19       9.0494      0.00000
     20       9.3431      0.00000
     21      10.7677      0.00000
     22      10.9084      0.00000
     23      11.7036      0.00000
     24      13.0096      0.00000

 k-point  67 :       0.5000    0.3750    0.0000
  band No.  band energies     occupation 
      1     -14.4336      2.00000
      2     -13.6961      2.00000
      3     -12.2506      2.00000
      4     -10.2012      2.00000
      5      -7.5647      2.00000
      6      -5.6916      2.00000
      7      -5.5781      2.00000
      8      -4.1936      2.00000
      9      -3.8561      2.00000
     10      -2.5681      2.00000
     11      -1.8846      2.00000
     12      -1.5551      2.00000
     13      -1.0511      2.00000
     14      -0.8994      2.00000
     15       0.5422      2.00000
     16       2.6156      2.00000
     17       5.9266      0.00000
     18       8.3379      0.00000
     19       8.5370      0.00000
     20       9.4894      0.00000
     21      10.6282      0.00000
     22      11.4588      0.00000
     23      12.2689      0.00000
     24      12.4900      0.00000

 k-point  68 :      -0.4375    0.3750    0.0000
  band No.  band energies     occupation 
      1     -14.6423      2.00000
      2     -13.5358      2.00000
      3     -11.7428      2.00000
      4     -10.7145      2.00000
      5      -7.3334      2.00000
      6      -6.3861      2.00000
      7      -4.9774      2.00000
      8      -4.6216      2.00000
      9      -4.1342      2.00000
     10      -2.1425      2.00000
     11      -2.1242      2.00000
     12      -1.4807      2.00000
     13      -0.8749      2.00000
     14      -0.5276      2.00000
     15       1.0708      2.00000
     16       2.0999      2.00000
     17       6.4447      0.00000
     18       7.6325      0.00000
     19       8.2674      0.00000
     20       9.6943      0.00000
     21      10.2707      0.00000
     22      12.1285      0.00000
     23      12.4953      0.00000
     24      12.7708      0.00000

 k-point  69 :      -0.3750    0.3750    0.0000
  band No.  band energies     occupation 
      1     -14.8050      2.00000
      2     -13.3303      2.00000
      3     -11.2012      2.00000
      4     -11.2012      2.00000
      5      -7.0928      2.00000
      6      -7.0928      2.00000
      7      -5.0473      2.00000
      8      -4.3396      2.00000
      9      -4.3396      2.00000
     10      -2.3116      2.00000
     11      -1.7373      2.00000
     12      -1.5382      2.00000
     13      -0.6502      2.00000
     14      -0.2872      2.00000
     15       1.6044      2.00000
     16       1.6044      2.00000
     17       6.9559      0.00000
     18       6.9559      0.00000
     19       8.0580      0.00000
     20       9.8582      0.00000
     21       9.9584      0.00000
     22      11.9637      0.00000
     23      12.4533      0.00000
     24      13.1894      0.00000

 k-point  70 :       0.4375    0.4375    0.0000
  band No.  band energies     occupation 
      1     -14.0870      2.00000
      2     -14.0870      2.00000
      3     -12.2730      2.00000
      4     -10.2185      2.00000
      5      -7.3701      2.00000
      6      -5.7917      2.00000
      7      -5.5153      2.00000
      8      -4.0255      2.00000
      9      -3.3711      2.00000
     10      -3.3711      2.00000
     11      -1.4902      2.00000
     12      -1.4902      2.00000
     13      -1.2403      2.00000
     14      -1.2403      2.00000
     15       0.5223      2.00000
     16       2.6283      2.00000
     17       5.9363      0.00000
     18       8.3902      0.00000
     19       8.9842      0.00000
     20       8.9842      0.00000
     21      11.3632      0.00000
     22      11.4637      0.00000
     23      11.4637      0.00000
     24      12.6103      0.00000

 k-point  71 :       0.5000    0.4375    0.0000
  band No.  band energies     occupation 
      1     -14.3178      2.00000
      2     -13.9487      2.00000
      3     -11.7868      2.00000
      4     -10.7548      2.00000
      5      -6.9984      2.00000
      6      -6.0666      2.00000
      7      -5.3359      2.00000
      8      -4.4524      2.00000
      9      -3.7824      2.00000
     10      -2.9514      2.00000
     11      -1.7530      2.00000
     12      -1.3352      2.00000
     13      -1.1873      2.00000
     14      -0.8668      2.00000
     15       1.0377      2.00000
     16       2.0947      2.00000
     17       6.5000      0.00000
     18       7.7253      0.00000
     19       8.6850      0.00000
     20       9.1610      0.00000
     21      11.1305      0.00000
     22      11.9699      0.00000
     23      12.2562      0.00000
     24      12.3824      0.00000

 k-point  72 :      -0.4375    0.4375    0.0000
  band No.  band energies     occupation 
      1     -14.5031      2.00000
      2     -13.7648      2.00000
      3     -11.2652      2.00000
      4     -11.2652      2.00000
      5      -6.6836      2.00000
      6      -6.6836      2.00000
      7      -4.7640      2.00000
      8      -4.7640      2.00000
      9      -4.2050      2.00000
     10      -2.5363      2.00000
     11      -1.9646      2.00000
     12      -1.2621      2.00000
     13      -1.1297      2.00000
     14      -0.6281      2.00000
     15       1.5711      2.00000
     16       1.5711      2.00000
     17       7.0686      0.00000
     18       7.0686      0.00000
     19       8.4461      0.00000
     20       9.3975      0.00000
     21      10.7262      0.00000
     22      12.0893      0.00000
     23      12.3450      0.00000
     24      12.4117      0.00000

 k-point  73 :       0.5000    0.5000    0.0000
  band No.  band energies     occupation 
      1     -14.1561      2.00000
      2     -14.1561      2.00000
      3     -11.2866      2.00000
      4     -11.2866      2.00000
      5      -6.4935      2.00000
      6      -6.4935      2.00000
      7      -4.9600      2.00000
      8      -4.9600      2.00000
      9      -3.3640      2.00000
     10      -3.3640      2.00000
     11      -1.5695      2.00000
     12      -1.5695      2.00000
     13      -0.9563      2.00000
     14      -0.9563      2.00000
     15       1.5596      2.00000
     16       1.5596      2.00000
     17       7.1085      0.00000
     18       7.1085      0.00000
     19       8.8929      0.00000
     20       8.8929      0.00000
     21      11.5834      0.00000
     22      11.5834      0.00000
     23      12.2198      0.00000
     24      12.2198      0.00000


--------------------------------------------------------------------------------------------------------


 soft charge-density along one line, spin component           1
         0         1         2         3         4         5         6         7         8         9
 total charge-density along one line
 
 pseudopotential strength for first ion, spin component:           1
  9.806   0.006   0.000   0.000  -0.000  -0.000  -0.000   0.000
  0.006  -0.002  -0.000  -0.000   0.000  -0.000  -0.000   0.000
  0.000  -0.000  -3.968  -0.000   0.000  -0.016  -0.000   0.000
  0.000  -0.000  -0.000  -3.959   0.000  -0.000  -0.013   0.000
 -0.000   0.000   0.000   0.000  -3.968   0.000   0.000  -0.016
 -0.000  -0.000  -0.016  -0.000   0.000  -0.764  -0.000   0.000
 -0.000  -0.000  -0.000  -0.013   0.000  -0.000  -0.764   0.000
  0.000   0.000   0.000   0.000  -0.016   0.000   0.000  -0.764
 total augmentation occupancy for first ion, spin component:           1
  1.461  -1.164   0.000  -0.000  -0.000   0.000   0.000  -0.000
 -1.164   1.133  -0.000   0.000   0.000  -0.000   0.000   0.000
  0.000  -0.000   1.229   0.000  -0.000   0.227   0.000  -0.000
 -0.000   0.000  -0.000   0.995   0.000   0.000   0.108   0.000
 -0.000   0.000  -0.000  -0.000   1.229  -0.000  -0.000   0.227
  0.000  -0.000   0.227  -0.000  -0.000   0.048   0.000  -0.000
  0.000  -0.000  -0.000   0.108   0.000   0.000   0.013   0.000
 -0.000   0.000  -0.000  -0.000   0.227  -0.000   0.000   0.048


------------------------ aborting loop because EDIFF is reached ----------------------------------------


 


 total charge     
 
# of ion     s       p       d       tot
----------------------------------------
  1        0.863   1.825   0.000   2.688
  2        0.863   1.825   0.000   2.688
  3        0.863   1.825   0.000   2.688
  4        0.863   1.825   0.000   2.688
  5        0.863   1.825   0.000   2.688
  6        0.863   1.825   0.000   2.688
  7        0.863   1.825   0.000   2.688
  8        0.863   1.825   0.000   2.688
------------------------------------------------
tot        6.904  14.600   0.000  21.504
 
    CHARGE:  cpu time    0.14: real time    0.14
    FORLOC:  cpu time    0.00: real time    0.00
    FORNL :  cpu time    0.27: real time    0.27
    STRESS:  cpu time    1.00: real time    1.00
    FORHAR:  cpu time    0.00: real time    0.00
    MIXING:  cpu time    0.00: real time    0.00

  FORCE on cell =-STRESS in cart. coord.  units (eV):
  Direction    XX          YY          ZZ          XY          YZ          ZX
  --------------------------------------------------------------------------------------
  Alpha Z    65.15269    65.15269    65.15269
  Ewald     342.69539   342.68108 -1424.12721    -0.01239    -0.00000    -0.00000
  Hartree   472.86407   472.86242  -427.15320    -0.00143     0.00000    -0.00000
  E(xc)    -117.92762  -117.92770  -122.61057    -0.00007    -0.00000     0.00000
  Local   -1211.41908 -1211.40680  1384.92973     0.01063     0.00000    -0.00000
  n-local   -30.05814   -30.20858   -29.48947     0.04304     0.00000     0.00000
  augment    -3.29739    -3.29739    -2.95170     0.00000     0.00000    -0.00001
  Kinetic   476.03159   491.99688   571.74724    -4.60239    -0.00000     0.00000
  Fock        0.00000     0.00000     0.00000     0.00000     0.00000     0.00000
  -------------------------------------------------------------------------------------
  Total       1.94633     1.94778    15.49750     0.00125     0.00000     0.00000
  in kB      38.96078    38.98979   310.22216     0.02512     0.00000     0.00000
  external pressure =      129.39 kB  Pullay stress =        0.00 kB


 VOLUME and BASIS-vectors are now :
 -----------------------------------------------------------------------------
  energy-cutoff  :      500.00
  volume of cell :       80.04
      direct lattice vectors                 reciprocal lattice vectors
     4.904165939 -0.000032625  0.000000000     0.203909055  0.117728756  0.000000000
    -2.452111223  4.247115975  0.000000000     0.000001566  0.235454800  0.000000000
     0.000000000  0.000000000  3.842747929     0.000000000  0.000000000  0.260230444

  length of vectors
     4.904165939  4.904165939  3.842747929     0.235454800  0.235454800  0.260230444


 FORCES acting on ions
    electron-ion (+dipol)            ewald-force                    non-local-force                 convergence-correction
 -----------------------------------------------------------------------------------------------
   0.149E-02 -.864E-03 -.807E-04   0.321E-03 -.148E-03 -.302E-15   0.276E-03 -.160E-03 -.542E-19   0.430E-04 -.249E-04 -.652E-08
   0.114E-02 -.661E-03 -.292E-04   -.335E-03 0.193E-03 -.258E-15   -.276E-03 0.160E-03 0.813E-19   -.429E-04 0.247E-04 -.138E-07
   0.149E-02 -.863E-03 -.807E-04   0.308E-03 -.178E-03 0.152E-16   0.276E-03 -.160E-03 0.108E-18   0.431E-04 -.249E-04 -.652E-08
   0.117E-02 -.661E-03 -.292E-04   -.289E-03 0.203E-03 0.681E-16   -.276E-03 0.160E-03 -.542E-19   -.430E-04 0.247E-04 -.138E-07
   0.149E-02 -.864E-03 -.807E-04   0.302E-03 -.174E-03 -.114E-15   0.276E-03 -.160E-03 0.542E-19   0.430E-04 -.248E-04 -.652E-08
   0.115E-02 -.683E-03 -.292E-04   -.320E-03 0.148E-03 -.496E-15   -.276E-03 0.160E-03 -.813E-19   -.429E-04 0.249E-04 -.138E-07
   0.149E-02 -.863E-03 -.807E-04   0.288E-03 -.204E-03 -.204E-15   0.276E-03 -.160E-03 -.108E-18   0.431E-04 -.248E-04 -.652E-08
   0.118E-02 -.683E-03 -.292E-04   -.274E-03 0.158E-03 -.148E-15   -.276E-03 0.160E-03 0.379E-18   -.430E-04 0.248E-04 -.138E-07
 -----------------------------------------------------------------------------------------------
   0.106E-01 -.614E-02 -.439E-03   0.191E-13 -.401E-13 -.144E-14   0.347E-16 -.833E-16 0.325E-18   0.362E-06 -.209E-06 -.811E-07
 
 
 POSITION                                       TOTAL-FORCE (eV/Angst)
 -----------------------------------------------------------------------------------
      4.90414     -0.00002      0.28117         0.000791     -0.000456      0.000000
      1.22603      0.70784      0.28117        -0.000791      0.000456     -0.000000
      2.45206     -0.00000      0.28117         0.000791     -0.000456     -0.000000
      3.67812      0.70783      0.28117        -0.000791      0.000456     -0.000000
      3.67809      2.12354      0.28117         0.000791     -0.000456      0.000000
     -0.00002      2.83140      0.28117        -0.000791      0.000456      0.000000
      1.22601      2.12355      0.28117         0.000791     -0.000456      0.000000
      2.45206      2.83139      0.28117        -0.000791      0.000456     -0.000000
 -----------------------------------------------------------------------------------
    total drift:                                0.010621     -0.006141     -0.000439


--------------------------------------------------------------------------------------------------------



  FREE ENERGIE OF THE ION-ELECTRON SYSTEM (eV)
  ---------------------------------------------------
  free  energy   TOTEN  =       -71.077995 eV

  energy  without entropy=      -71.077995  energy(sigma->0) =      -71.077995
 


--------------------------------------------------------------------------------------------------------


    POTLOK:  cpu time    0.01: real time    0.01


--------------------------------------------------------------------------------------------------------


 stress matrix after NEB project (eV)
      1.94633      0.00125      0.00000
      0.00125      1.94778      0.00000
     -0.00000      0.00000     15.49750
  FORCES: max atom, RMS     0.000913    0.000913
  FORCE total and by dimension    0.002582    0.000791
  Stress total and by dimension   15.740224   15.497503
 writing wavefunctions
     LOOP+:  cpu time   25.02: real time   25.22
    4ORBIT:  cpu time    0.00: real time    0.00
 


 total charge     
 
# of ion     s       p       d       tot
----------------------------------------
  1        0.863   1.825   0.000   2.688
  2        0.863   1.825   0.000   2.688
  3        0.863   1.825   0.000   2.688
  4        0.863   1.825   0.000   2.688
  5        0.863   1.825   0.000   2.688
  6        0.863   1.825   0.000   2.688
  7        0.863   1.825   0.000   2.688
  8        0.863   1.825   0.000   2.688
------------------------------------------------
tot        6.904  14.600   0.000  21.504
 
 BZINTS: Fermi energy:  4.010741; 32.000000 electrons
         Band energy:-161.969956;  BLOECHL correction:  0.000000

 total amount of memory used by VASP on root node    46044. kBytes
========================================================================

   base      :      30000. kBytes
   nonl-proj :       9792. kBytes
   fftplans  :        274. kBytes
   grid      :       1021. kBytes
   one-center:         24. kBytes
   wavefun   :       4933. kBytes
 
  
  
 General timing and accounting informations for this job:
 ========================================================
  
                  Total CPU time used (sec):       26.193
                            User time (sec):       25.997
                          System time (sec):        0.196
                         Elapsed time (sec):       26.452
  
                   Maximum memory used (kb):       59276.
                   Average memory used (kb):           0.
  
                          Minor page faults:        25807
                          Major page faults:            7
                 Voluntary context switches:          348
