 vasp.5.2.11 25Nov10 complex 
 executed on             LinuxIFC date 2018.12.14  11:03:05
 running on   20 nodes
 distr:  one band on    1 nodes,   20 groups


--------------------------------------------------------------------------------------------------------


 INCAR:
 POTCAR:   PAW_PBE C 08Apr2002                    
 POTCAR:   PAW_PBE C 08Apr2002                    
   VRHFIN =C: s2p2                                                              
   LEXCH  = PE                                                                  
   EATOM  =   147.1560 eV,   10.8157 Ry                                         
                                                                                
   TITEL  = PAW_PBE C 08Apr2002                                                 
   LULTRA =        F    use ultrasoft PP ?                                      
   IUNSCR =        0    unscreen: 0-lin 1-nonlin 2-no                           
   RPACOR =     .000    partial core radius                                     
   POMASS =   12.011; ZVAL   =    4.000    mass and valenz                      
   RCORE  =    1.500    outmost cutoff radius                                   
   RWIGS  =    1.630; RWIGS  =     .863    wigner-seitz radius (au A)           
   ENMAX  =  400.000; ENMIN  =  300.000 eV                                      
   ICORE  =        2    local potential                                         
   LCOR   =        T    correct aug charges                                     
   LPAW   =        T    paw PP                                                  
   EAUG   =  644.873                                                            
   DEXC   =     .000                                                            
   RMAX   =    2.266    core radius for proj-oper                               
   RAUG   =    1.300    factor for augmentation sphere                          
   RDEP   =    1.501    radius for radial grids                                 
   RDEPT  =    1.300    core radius for aug-charge                              
   QCUT   =   -5.516; QGAM   =   11.032    optimization parameters              
                                                                                
   Description                                                                  
     l     E      TYP  RCUT    TYP  RCUT                                        
     0   .000     23  1.200                                                     
     0   .000     23  1.200                                                     
     1   .000     23  1.500                                                     
     1  2.500     23  1.500                                                     
     2   .000      7  1.500                                                     
  local pseudopotential read in
  atomic valenz-charges read in
  non local Contribution for L=           0  read in
    real space projection operators read in
  non local Contribution for L=           0  read in
    real space projection operators read in
  non local Contribution for L=           1  read in
    real space projection operators read in
  non local Contribution for L=           1  read in
    real space projection operators read in
    PAW grid and wavefunctions read in
 
   number of l-projection  operators is LMAX  =           4
   number of lm-projection operators is LMMAX =           8
 
 PAW_PBE C 08Apr2002                    :
 energy of atom  1       EATOM= -147.1560
 kinetic energy error for atom=    0.0076 (will be added to EATOM!!)
 
 
 POSCAR: graphite                                
  positions in direct lattice
  velocities in cartesian coordinates
 exchange correlation table for  LEXCH =        8
   RHO(1)=    0.500       N(1)  =     2000
   RHO(2)=  100.500       N(2)  =     4000

 VTST: version 3.1, (03/28/14)

 CHAIN: initializing optimizer
 
 OPT: Using VASP QUASI-newton optimizer
 CHAIN: Read ICHAIN            0
 
 POSCAR: graphite                                
  positions in direct lattice
  velocities in cartesian coordinates
 


--------------------------------------------------------------------------------------------------------


 ion  position               nearest neighbor table
   1  1.000  0.000  0.073-   4 1.41   8 1.43   2 1.43
   2  0.334  0.166  0.073-   3 1.41   7 1.43   1 1.43
   3  0.500  0.000  0.073-   2 1.41   6 1.43   4 1.43
   4  0.834  0.166  0.073-   1 1.41   3 1.43   5 1.43
   5  1.000  0.500  0.073-   8 1.41   4 1.43   6 1.43
   6  0.334  0.666  0.073-   7 1.41   3 1.43   5 1.43
   7  0.500  0.500  0.073-   6 1.41   8 1.43   2 1.43
   8  0.834  0.666  0.073-   5 1.41   1 1.43   7 1.43
 
  LATTYP: Found a base centered orthorhombic cell.
 ALAT       =     4.9488651109
 B/A-ratio  =     1.7169629270
 C/A-ratio  =     0.6470989524
  
  Lattice vectors:
  
 A1 = (   4.9165329680,   0.0186669714,   0.0000000000)
 A2 = (  -2.4421004125,   4.2671759346,   0.0000000000)
 A3 = (   0.0000000000,   0.0000000000,   3.2024054288)
 Subroutine PRICEL returns following result:
 
  LATTYP: Found a base centered orthorhombic cell.
 ALAT       =     2.4744325555
 B/A-ratio  =     1.7169629270
 C/A-ratio  =     1.2941979048
  
  Lattice vectors:
  
 A1 = (   2.4582666266,   0.0093334862,   0.0000000000)
 A2 = (  -1.2210501354,   2.1335878435,   0.0000000000)
 A3 = (   0.0000000000,   0.0000000000,   3.2024054288)
 
   4 primitive cells build up your supercell.
 

Analysis of symmetry for initial positions (statically):

 Routine SETGRP: Setting up the symmetry group for a 
 base centered orthorhombic supercell.


 Subroutine GETGRP returns: Found  8 space group operations
 (whereof  2 operations were pure point group operations)
 out of a pool of  8 trial point group operations.


The static configuration has the point symmetry C_1h.
 The point group associated with its full space group is D_2h.

Analysis of symmetry for dynamics (positions and initial velocities):

 Subroutine DYNSYM returns: Found  8 space group operations
 (whereof  2 operations were pure point group operations)
 out of a pool of  8 trial space group operations
 (whereof  2 operations were pure point group operations)
 and found also     4 'primitive' translations


The dynamic configuration has the point symmetry C_1h.
 The point group associated with its full space group is D_2h.
 
 

Automatic generation of k-mesh.
 generate k-points for:    3    3    4
 
 Subroutine IBZKPT returns following result:
 ===========================================
 
 Found     12 irreducible k-points:
 
 Following reciprocal coordinates:
            Coordinates               Weight
  0.000000  0.000000  0.000000      1.000000
  0.333333  0.000000  0.000000      4.000000
  0.333333  0.333333  0.000000      2.000000
 -0.333333  0.333333  0.000000      2.000000
  0.000000  0.000000  0.250000      2.000000
  0.333333  0.000000  0.250000      8.000000
  0.333333  0.333333  0.250000      4.000000
 -0.333333  0.333333  0.250000      4.000000
  0.000000  0.000000  0.500000      1.000000
  0.333333  0.000000  0.500000      4.000000
  0.333333  0.333333  0.500000      2.000000
 -0.333333  0.333333  0.500000      2.000000
 
 Following cartesian coordinates:
            Coordinates               Weight
  0.000000  0.000000  0.000000      1.000000
  0.067651  0.038717  0.000000      4.000000
  0.067356  0.116663  0.000000      2.000000
 -0.067947  0.039229  0.000000      2.000000
  0.000000  0.000000  0.078066      2.000000
  0.067651  0.038717  0.078066      8.000000
  0.067356  0.116663  0.078066      4.000000
 -0.067947  0.039229  0.078066      4.000000
  0.000000  0.000000  0.156133      1.000000
  0.067651  0.038717  0.156133      4.000000
  0.067356  0.116663  0.156133      2.000000
 -0.067947  0.039229  0.156133      2.000000
 
 TETIRR: Found     50 inequivalent tetrahedra from      216


--------------------------------------------------------------------------------------------------------




 Dimension of arrays:
   k-points           NKPTS =     12   k-points in BZ     NKDIM =     12   number of bands    NBANDS=     40
   number of dos      NEDOS =   1000   number of ions     NIONS =      8
   non local maximal  LDIM  =      4   non local SUM 2l+1 LMDIM =      8
   total plane-waves  NPLWV =  14112
   max r-space proj   IRMAX =      1   max aug-charges    IRDMAX=   1181
   dimension x,y,z NGX =    28 NGY =   28 NGZ =   18
   dimension x,y,z NGXF=    40 NGYF=   40 NGZF=   28
   support grid    NGXF=    40 NGYF=   40 NGZF=   28
   ions per type =               8
 NGX,Y,Z   is equivalent  to a cutoff of   9.47,  9.47,  9.34 a.u.
 NGXF,Y,Z  is equivalent  to a cutoff of  13.53, 13.53, 14.54 a.u.


 I would recommend the setting:
   dimension x,y,z NGX =    27 NGY =   27 NGZ =   18
 SYSTEM =  NAME                                    
 POSCAR =  graphite                                

 Startparameter for this run:
   NWRITE =      2    write-flag & timer
   PREC   = medium    normal or accurate (medium, high low for compatibility)
   ISTART =      0    job   : 0-new  1-cont  2-samecut
   ICHARG =      2    charge: 1-file 2-atom 10-const
   ISPIN  =      1    spin polarized calculation?
   LNONCOLLINEAR =      F non collinear calculations
   LSORBIT =      F    spin-orbit coupling
   INIWAV =      1    electr: 0-lowe 1-rand  2-diag
   LASPH  =      F    aspherical Exc in radial PAW
   METAGGA=      F    non-selfconsistent MetaGGA calc.

 Electronic Relaxation 1
   ENCUT  =  500.0 eV  36.75 Ry    6.06 a.u.   8.96  8.96  5.84*2*pi/ulx,y,z
   ENINI  =  500.0     initial cutoff
   ENAUG  =  644.9 eV  augmentation charge cutoff
   NELM   =    100;   NELMIN=  5; NELMDL= -5     # of ELM steps 
   EDIFF  = 0.1E-03   stopping-criterion for ELM
   LREAL  =      F    real-space projection
   LCOMPAT=      F    compatible to vasp.4.4
   GGA_COMPAT  = T    GGA compatible to vasp.4.4-vasp.4.6
   LMAXPAW     = -100 max onsite density
   LMAXMIX     =    2 max onsite mixed and CHGCAR
   VOSKOWN=      0    Vosko Wilk Nusair interpolation
   ROPT   =    0.00000
 Ionic relaxation
   EDIFFG = 0.1E-02   stopping-criterion for IOM
   NSW    =      0    number of steps for IOM
   NBLOCK =      1;   KBLOCK =      1    inner block; outer block 
   IBRION =     -1    ionic relax: 0-MD 1-quasi-New 2-CG
   NFREE  =      0    steps in history (QN), initial steepest desc. (CG)
   ISIF   =      2    stress and relaxation
   IWAVPR =     10    prediction:  0-non 1-charg 2-wave 3-comb
   ISYM   =      2    0-nonsym 1-usesym 2-fastsym
   LCORR  =      T    Harris-Foulkes like correction to forces

   POTIM  = 0.5000    time-step for ionic-motion
   TEIN   =    0.0    initial temperature
   TEBEG  =    0.0;   TEEND  =   0.0 temperature during run
   SMASS  =  -3.00    Nose mass-parameter (am)
   estimated Nose-frequenzy (Omega)   =  0.10E-29 period in steps =****** mass=  -0.552E-27a.u.
   NPACO  =    256;   APACO  = 16.0  distance and # of slots for P.C.
   PSTRESS=    0.0 pullay stress

  Mass of Ions in am
   POMASS =  12.01
  Ionic Valenz
   ZVAL   =   4.00
  Atomic Wigner-Seitz radii
   RWIGS  =  -1.00
  virtual crystal weights 
   VCA    =   1.00
   NELECT =      32.0000    total number of electrons
   NUPDOWN=      -1.0000    fix difference up-down

 DOS related values:
   EMIN   =  10.00;   EMAX   =-10.00  energy-range for DOS
   EFERMI =   0.00
   ISMEAR =    -5;   SIGMA  =   0.20  broadening in eV -4-tet -1-fermi 0-gaus

 Electronic relaxation 2 (details)
   IALGO  =     38    algorithm
   LDIAG  =      T    sub-space diagonalisation (order eigenvalues)
   LSUBROT=      T    optimize rotation matrix (better conditioning)
   TURBO    =      0    0=normal 1=particle mesh
   IRESTART =      0    0=no restart 2=restart with 2 vectors
   NREBOOT  =      0    no. of reboots
   NMIN     =      0    reboot dimension
   EREF     =   0.00    reference energy to select bands
   IMIX   =      4    mixing-type and parameters
     AMIX     =   0.40;   BMIX     =  1.00
     AMIX_MAG =   1.60;   BMIX_MAG =  1.00
     AMIN     =   0.10
     WC   =   100.;   INIMIX=   1;  MIXPRE=   1

 Intra band minimization:
   WEIMIN = 0.0000     energy-eigenvalue tresh-hold
   EBREAK =  0.12E-05  absolut break condition
   DEPER  =   0.30     relativ break condition  

   TIME   =   0.40     timestep for ELM

  volume/ion in A,a.u.               =       8.42        56.80
  Fermi-wavevector in a.u.,A,eV,Ry     =   1.277572  2.414261 22.207291  1.632190
  Thomas-Fermi vector in A             =   2.410164
 
 Write flags
   LWAVE  =      T    write WAVECAR
   LCHARG =      T    write CHGCAR
   LVTOT  =      F    write LOCPOT, total local potential
   LVHAR  =      F    write LOCPOT, Hartree potential only
   LELF   =      F    write electronic localiz. function (ELF)
   LORBIT =     11    0 simple, 1 ext, 2 COOP (PROOUT)


 Dipole corrections
   LMONO  =      F    monopole corrections only (constant potential shift)
   LDIPOL =      F    correct potential (dipole corrections)
   IDIPOL =      0    1-x, 2-y, 3-z, 4-all directions 
   EPSILON=  1.0000000 bulk dielectric constant

 Exchange correlation treatment:
   GGA     =    --    GGA type
   LEXCH   =     8    internal setting for exchange type
   VOSKOWN=      0    Vosko Wilk Nusair interpolation
   LHFCALC =     F    Hartree Fock is set to
   LHFONE  =     F    Hartree Fock one center treatment
   AEXX    =    0.0000 exact exchange contribution

 Linear response parameters
   LEPSILON=     F    determine dielectric tensor
   LRPA    =     F    only Hartree local field effects (RPA)
   LNABLA  =     F    use nabla operator in PAW spheres
   LVEL    =     F    velocity operator in full k-point grid
   LINTERFAST=   F  fast interpolation
   KINTER  =     0    interpolate to denser k-point grid
   CSHIFT  =0.1000    complex shift for real part using Kramers Kronig
   OMEGAMAX=  -1.0    maximum frequency
   RTIME   =    0.100 relaxation time in fs

 Orbital magnetization related:
   ORBITALMAG=     F  switch on orbital magnetization
   LCHIMAG   =     F  perturbation theory with respect to B field



--------------------------------------------------------------------------------------------------------


 Static calculation
 charge density and potential will be updated during run
 non-spin polarized calculation
 Variant of blocked Davidson
 Davidson routine will perform the subspace rotation
 perform sub-space diagonalisation
    after iterative eigenvector-optimisation
 modified Broyden-mixing scheme, WC =      100.0
 initial mixing is a Kerker type mixing with AMIX =  0.4000 and BMIX =      1.0000
 Hartree-type preconditioning will be used
 using additional bands           24
 reciprocal scheme for non local part
 calculate Harris-corrections to forces 
   (improved forces if not selfconsistent)
 use gradient corrections 
 use of overlap-Matrix (Vanderbilt PP)
 Fermi weights with tetrahedron method with Bloechl corrections


--------------------------------------------------------------------------------------------------------


  energy-cutoff  :      500.00
  volume of cell :       67.33
      direct lattice vectors                 reciprocal lattice vectors
     4.916532968  0.018666971  0.000000000     0.202954364  0.116150574  0.000000000
    -2.442100413  4.267175935  0.000000000    -0.000887834  0.233838922  0.000000000
     0.000000000  0.000000000  3.202405429     0.000000000  0.000000000  0.312265271

  length of vectors
     4.916568405  4.916568405  3.202405429     0.233840607  0.233840607  0.312265271


 
 k-points in units of 2pi/SCALE and weight: read from INCAR                         
   0.00000000  0.00000000  0.00000000       0.028
   0.06765145  0.03871686  0.00000000       0.111
   0.06735551  0.11666317  0.00000000       0.056
  -0.06794740  0.03922945  0.00000000       0.056
   0.00000000  0.00000000  0.07806632       0.056
   0.06765145  0.03871686  0.07806632       0.222
   0.06735551  0.11666317  0.07806632       0.111
  -0.06794740  0.03922945  0.07806632       0.111
   0.00000000  0.00000000  0.15613264       0.028
   0.06765145  0.03871686  0.15613264       0.111
   0.06735551  0.11666317  0.15613264       0.056
  -0.06794740  0.03922945  0.15613264       0.056
 
 k-points in reciprocal lattice and weights: read from INCAR                         
   0.00000000  0.00000000  0.00000000       0.028
   0.33333333  0.00000000  0.00000000       0.111
   0.33333333  0.33333333  0.00000000       0.056
  -0.33333333  0.33333333  0.00000000       0.056
   0.00000000  0.00000000  0.25000000       0.056
   0.33333333  0.00000000  0.25000000       0.222
   0.33333333  0.33333333  0.25000000       0.111
  -0.33333333  0.33333333  0.25000000       0.111
   0.00000000  0.00000000  0.50000000       0.028
   0.33333333  0.00000000  0.50000000       0.111
   0.33333333  0.33333333  0.50000000       0.056
  -0.33333333  0.33333333  0.50000000       0.056
 
 position of ions in fractional coordinates (direct lattice) 
   0.99953813  0.00046187  0.07317000
   0.33379187  0.16620813  0.07317000
   0.49953813  0.00046187  0.07317000
   0.83379185  0.16620813  0.07317000
   0.99953813  0.50046187  0.07317000
   0.33379187  0.66620815  0.07317000
   0.49953813  0.50046187  0.07317000
   0.83379185  0.66620815  0.07317000
 
 position of ions in cartesian coordinates  (Angst):
   4.91313424  0.02062923  0.23432000
   1.23520183  0.71547020  0.23432000
   2.45486775  0.01129574  0.23432000
   3.69346817  0.72480368  0.23432000
   3.69208403  2.15421720  0.23432000
   0.01415155  2.84905829  0.23432000
   1.23381755  2.14488371  0.23432000
   2.47241789  2.85839177  0.23432000
 


--------------------------------------------------------------------------------------------------------


 k-point  1 :  0.00000.00000.0000  plane waves:    1721
 k-point  2 :  0.33330.00000.0000  plane waves:    1701
 k-point  3 :  0.33330.33330.0000  plane waves:    1709
 k-point  4 :  -.33330.33330.0000  plane waves:    1698
 k-point  5 :  0.00000.00000.2500  plane waves:    1680
 k-point  6 :  0.33330.00000.2500  plane waves:    1707
 k-point  7 :  0.33330.33330.2500  plane waves:    1715
 k-point  8 :  -.33330.33330.2500  plane waves:    1712
 k-point  9 :  0.00000.00000.5000  plane waves:    1688
 k-point 10 :  0.33330.00000.5000  plane waves:    1722
 k-point 11 :  0.33330.33330.5000  plane waves:    1720
 k-point 12 :  -.33330.33330.5000  plane waves:    1716

 maximum and minimum number of plane-waves per node :      1722     1680

 maximum number of plane-waves:      1722
 maximum index in each direction: 
   IXMAX=    9   IYMAX=    8   IZMAX=    5
   IXMIN=   -9   IYMIN=   -9   IZMIN=   -6

 WARNING: aliasing errors must be expected set NGX to  38 to avoid them
 WARNING: aliasing errors must be expected set NGY to  36 to avoid them
 WARNING: aliasing errors must be expected set NGZ to  24 to avoid them
 aliasing errors are usually negligible using standard VASP settings
 and one can safely disregard these warnings

 serial   3D FFT for wavefunctions
 parallel 3D FFT for charge:
    minimum data exchange during FFTs selected (reduces bandwidth)


 total amount of memory used by VASP on root node    33123. kBytes
========================================================================

   base      :      30000. kBytes
   nonl-proj :       1559. kBytes
   fftplans  :        153. kBytes
   grid      :        689. kBytes
   one-center:         24. kBytes
   wavefun   :        698. kBytes
 
 Broyden mixing: mesh for mixing (old mesh)
   NGX = 17   NGY = 17   NGZ = 11
  (NGX  = 40   NGY  = 40   NGZ  = 28)
  gives a total of   3179 points

 initial charge density was supplied:
 charge density of overlapping atoms calculated
 number of electron      32.0000000 magnetization 
 keeping initial charge density in first step


--------------------------------------------------------------------------------------------------------


 Maximum index for augmentation-charges          110 (set IRDMAX)


--------------------------------------------------------------------------------------------------------


 First call to EWALD:  gamma=   0.436
 Maximum number of real-space cells 3x 3x 3
 Maximum number of reciprocal cells 3x 3x 2

    FEWALD:  cpu time    0.00: real time    0.00


----------------------------------------- Iteration    1(   1)  ---------------------------------------


    POTLOK:  cpu time    0.01: real time    0.01
    SETDIJ:  cpu time    0.00: real time    0.00
     EDDAV:  cpu time    1.69: real time    1.77
 BZINTS: Fermi energy:  8.783017; 32.000000 electrons
         Band energy: -79.464216;  BLOECHL correction: -0.268710
       DOS:  cpu time    0.00: real time    0.00
    --------------------------------------------
      LOOP:  cpu time    1.70: real time    1.78

 eigenvalue-minimisations  :   960
 total energy-change (2. order) : 0.3792323E+02  (-0.1549691E+04)
 number of electron      32.0000000 magnetization 
 augmentation part       32.0000000 magnetization 

 Free energy of the ion-electron system (eV)
  ---------------------------------------------------
  alpha Z        PSCENC =        77.44856934
  Ewald energy   TEWEN  =      -976.82658119
  -1/2 Hartree   DENC   =      -262.23397508
  -exchange  EXHF       =         0.00000000
  -V(xc)+E(xc)   XCENC  =       111.01589515
  PAW double counting   =       302.65154477     -311.85538214
  entropy T*S    EENTRO =         0.00000000
  eigenvalues    EBANDS =       -79.46421576
  atomic energy  EATOM  =      1177.18737338
  ---------------------------------------------------
  free energy    TOTEN  =        37.92322847 eV

  energy without entropy =       37.92322847  energy(sigma->0) =       37.92322847


--------------------------------------------------------------------------------------------------------


 E-fermi :   8.7830     XC(G=0): -11.1583     alpha+bet :-11.9278


 k-point   1 :       0.0000    0.0000    0.0000
  band No.  band energies     occupation 
      1     -15.0281      2.00000
      2      -9.5489      2.00000
      3      -9.2723      2.00000
      4      -8.5845      2.00000
      5      -7.9901      2.00000
      6      -7.5260      2.00000
      7      -6.9846      2.00000
      8      -0.8983      2.00000
      9       0.9644      2.00000
     10       2.2002      2.00000
     11       2.9418      2.00000
     12       4.1250      2.00000
     13       4.8772      2.00000
     14       6.6179      2.00000
     15       7.5779      2.00000
     16       9.2828      1.68580
     17      10.9288      0.00000
     18      11.6716      0.00000
     19      13.5324      0.00000
     20      14.8829      0.00000
     21      15.7588      0.00000
     22      18.0897      0.00000
     23      18.3541      0.00000
     24      19.5771      0.00000
     25      19.8355      0.00000
     26      21.5316      0.00000
     27      21.9893      0.00000
     28      23.0580      0.00000
     29      25.1104      0.00000
     30      26.6776      0.00000
     31      27.5930      0.00000
     32      29.1915      0.00000
     33      32.6175      0.00000
     34      33.4273      0.00000
     35      34.9185      0.00000
     36      36.5191      0.00000
     37      36.9036      0.00000
     38      39.0096      0.00000
     39      41.6078      0.00000
     40      45.1033      0.00000

 k-point   2 :       0.3333    0.0000    0.0000
  band No.  band energies     occupation 
      1     -14.3048      2.00000
      2     -11.5650      2.00000
      3     -10.6250      2.00000
      4     -10.0443      2.00000
      5      -6.4044      2.00000
      6      -5.8386      2.00000
      7      -4.1982      2.00000
      8      -2.6834      2.00000
      9      -1.8385      2.00000
     10       0.5910      2.00000
     11       1.3442      2.00000
     12       2.8237      2.00000
     13       3.9636      2.00000
     14       4.2546      2.00000
     15       6.1434      2.00000
     16       8.1492      1.95094
     17      11.5035      0.00000
     18      12.5769      0.00000
     19      13.8113      0.00000
     20      15.3044      0.00000
     21      16.1308      0.00000
     22      17.7855      0.00000
     23      18.5469      0.00000
     24      18.8866      0.00000
     25      19.9943      0.00000
     26      21.2256      0.00000
     27      23.0815      0.00000
     28      24.1539      0.00000
     29      24.9439      0.00000
     30      26.1698      0.00000
     31      27.1892      0.00000
     32      28.5383      0.00000
     33      30.6273      0.00000
     34      32.2606      0.00000
     35      33.1689      0.00000
     36      35.8811      0.00000
     37      37.2136      0.00000
     38      37.7362      0.00000
     39      41.5716      0.00000
     40      43.4560      0.00000

 k-point   3 :       0.3333    0.3333    0.0000
  band No.  band energies     occupation 
      1     -13.5333      2.00000
      2     -12.9024      2.00000
      3     -12.5346      2.00000
      4      -7.2132      2.00000
      5      -6.0403      2.00000
      6      -4.4755      2.00000
      7      -2.5972      2.00000
      8      -1.7045      2.00000
      9      -0.6229      2.00000
     10       0.1070      2.00000
     11       1.3805      2.00000
     12       1.7663      2.00000
     13       3.2945      2.00000
     14       3.6427      2.00000
     15       4.7444      2.00000
     16       9.2426      1.28764
     17      10.2631      0.00000
     18      14.1243      0.00000
     19      14.6563      0.00000
     20      15.2439      0.00000
     21      16.6700      0.00000
     22      17.5302      0.00000
     23      18.4537      0.00000
     24      19.2072      0.00000
     25      20.1349      0.00000
     26      21.9624      0.00000
     27      22.7390      0.00000
     28      23.8481      0.00000
     29      24.3997      0.00000
     30      25.6453      0.00000
     31      28.6338      0.00000
     32      29.1912      0.00000
     33      31.4349      0.00000
     34      31.8592      0.00000
     35      33.1109      0.00000
     36      36.1795      0.00000
     37      36.8872      0.00000
     38      39.3967      0.00000
     39      41.6322      0.00000
     40      42.6038      0.00000

 k-point   4 :      -0.3333    0.3333    0.0000
  band No.  band energies     occupation 
      1     -14.3596      2.00000
      2     -11.4612      2.00000
      3     -10.3202      2.00000
      4      -9.3868      2.00000
      5      -6.1300      2.00000
      6      -4.9932      2.00000
      7      -3.5400      2.00000
      8      -1.9021      2.00000
      9      -1.3640      2.00000
     10       0.8747      2.00000
     11       1.9093      2.00000
     12       2.5443      2.00000
     13       3.5998      2.00000
     14       5.1197      2.00000
     15       7.0522      2.00000
     16       7.4556      2.07319
     17      12.2543      0.00000
     18      12.9360      0.00000
     19      14.0904      0.00000
     20      15.3612      0.00000
     21      15.9553      0.00000
     22      17.1859      0.00000
     23      18.6591      0.00000
     24      19.7741      0.00000
     25      20.4724      0.00000
     26      21.1763      0.00000
     27      22.3103      0.00000
     28      23.6048      0.00000
     29      25.3090      0.00000
     30      26.5485      0.00000
     31      28.0982      0.00000
     32      30.0595      0.00000
     33      31.0720      0.00000
     34      32.4250      0.00000
     35      34.2035      0.00000
     36      36.2105      0.00000
     37      37.1241      0.00000
     38      40.4178      0.00000
     39      42.8458      0.00000
     40      45.8631      0.00000

 k-point   5 :       0.0000    0.0000    0.2500
  band No.  band energies     occupation 
      1     -15.0754      2.00000
      2      -9.6856      2.00000
      3      -9.0828      2.00000
      4      -8.4907      2.00000
      5      -8.0440      2.00000
      6      -7.7365      2.00000
      7      -6.3373      2.00000
      8      -1.8031      2.00000
      9      -0.1144      2.00000
     10       0.8928      2.00000
     11       2.3743      2.00000
     12       4.0729      2.00000
     13       4.9466      2.00000
     14       5.5412      2.00000
     15       6.8432      2.00000
     16       7.5246      2.00960
     17       9.5518     -0.02693
     18      11.7702      0.00000
     19      13.2901      0.00000
     20      15.5253      0.00000
     21      16.1131      0.00000
     22      17.8147      0.00000
     23      19.0451      0.00000
     24      20.0975      0.00000
     25      21.2774      0.00000
     26      22.4258      0.00000
     27      22.7935      0.00000
     28      24.4308      0.00000
     29      24.8905      0.00000
     30      27.4843      0.00000
     31      28.7587      0.00000
     32      31.3241      0.00000
     33      32.5681      0.00000
     34      33.4104      0.00000
     35      35.2131      0.00000
     36      36.5669      0.00000
     37      37.5782      0.00000
     38      39.5710      0.00000
     39      40.9181      0.00000
     40      44.2829      0.00000

 k-point   6 :       0.3333    0.0000    0.2500
  band No.  band energies     occupation 
      1     -14.1865      2.00000
      2     -11.9198      2.00000
      3     -10.1253      2.00000
      4      -9.5119      2.00000
      5      -5.9774      2.00000
      6      -5.2728      2.00000
      7      -3.2412      2.00000
      8      -2.1964      2.00000
      9      -1.3287      2.00000
     10      -0.6834      2.00000
     11       1.3954      2.00000
     12       2.4386      2.00000
     13       3.3572      2.00000
     14       4.5928      2.00000
     15       5.1895      2.00000
     16       6.9682      2.08059
     17      10.6153     -0.04464
     18      12.8496      0.00000
     19      15.1959      0.00000
     20      16.6219      0.00000
     21      17.9173      0.00000
     22      18.4176      0.00000
     23      19.3689      0.00000
     24      19.7123      0.00000
     25      20.2415      0.00000
     26      21.7022      0.00000
     27      24.2865      0.00000
     28      25.1116      0.00000
     29      26.2678      0.00000
     30      27.2751      0.00000
     31      27.9990      0.00000
     32      30.5672      0.00000
     33      31.8909      0.00000
     34      34.7255      0.00000
     35      36.2292      0.00000
     36      36.8996      0.00000
     37      37.7013      0.00000
     38      39.5506      0.00000
     39      43.2077      0.00000
     40      44.9659      0.00000

 k-point   7 :       0.3333    0.3333    0.2500
  band No.  band energies     occupation 
      1     -13.0772      2.00000
      2     -12.3549      2.00000
      3     -11.6080      2.00000
      4      -7.0865      2.00000
      5      -6.0482      2.00000
      6      -5.1017      2.00000
      7      -2.0250      2.00000
      8      -1.0190      2.00000
      9      -0.6607      2.00000
     10       0.4141      2.00000
     11       0.9498      2.00000
     12       1.7483      2.00000
     13       2.1890      2.00000
     14       2.5998      2.00000
     15       6.7237      2.00000
     16       9.5307      1.39017
     17      10.9345     -0.06209
     18      13.6924      0.00000
     19      15.4532      0.00000
     20      16.2968      0.00000
     21      17.1297      0.00000
     22      17.8205      0.00000
     23      18.8941      0.00000
     24      19.3840      0.00000
     25      21.4789      0.00000
     26      23.3366      0.00000
     27      23.8919      0.00000
     28      25.4668      0.00000
     29      26.0436      0.00000
     30      27.1002      0.00000
     31      29.9973      0.00000
     32      30.5870      0.00000
     33      32.1974      0.00000
     34      33.7719      0.00000
     35      34.6109      0.00000
     36      36.3008      0.00000
     37      38.4925      0.00000
     38      40.1897      0.00000
     39      42.0628      0.00000
     40      44.4533      0.00000

 k-point   8 :      -0.3333    0.3333    0.2500
  band No.  band energies     occupation 
      1     -14.2539      2.00000
      2     -11.5650      2.00000
      3     -10.0826      2.00000
      4      -9.3335      2.00000
      5      -5.9398      2.00000
      6      -5.5235      2.00000
      7      -3.5942      2.00000
      8      -1.9922      2.00000
      9      -1.3874      2.00000
     10      -0.2316      2.00000
     11       1.4855      2.00000
     12       1.9146      2.00000
     13       2.7418      2.00000
     14       4.1218      2.00000
     15       4.6626      2.00000
     16       6.4538      2.08460
     17      11.9173     -0.12207
     18      12.3250      0.00000
     19      14.0725      0.00000
     20      16.0091      0.00000
     21      16.5443      0.00000
     22      18.0141      0.00000
     23      18.8920      0.00000
     24      19.9498      0.00000
     25      20.8473      0.00000
     26      21.5169      0.00000
     27      23.9993      0.00000
     28      24.6343      0.00000
     29      25.7188      0.00000
     30      26.7951      0.00000
     31      28.9881      0.00000
     32      30.5505      0.00000
     33      31.6819      0.00000
     34      32.1829      0.00000
     35      33.3177      0.00000
     36      35.3620      0.00000
     37      37.9483      0.00000
     38      38.3851      0.00000
     39      39.4528      0.00000
     40      42.7671      0.00000

 k-point   9 :       0.0000    0.0000    0.5000
  band No.  band energies     occupation 
      1     -14.8474      2.00000
      2      -9.3314      2.00000
      3      -8.6774      2.00000
      4      -8.2129      2.00000
      5      -7.8066      2.00000
      6      -7.4509      2.00000
      7      -6.7221      2.00000
      8      -2.6333      2.00000
      9      -0.9980      2.00000
     10       1.3823      2.00000
     11       3.0262      2.00000
     12       3.3425      2.00000
     13       4.1942      2.00000
     14       4.5513      2.00000
     15       6.6305      2.00000
     16       7.3817      2.00000
     17       8.4151      0.40496
     18       9.7708      0.00000
     19      11.9314      0.00000
     20      17.0288      0.00000
     21      17.5738      0.00000
     22      18.7294      0.00000
     23      20.4812      0.00000
     24      21.4280      0.00000
     25      23.0204      0.00000
     26      24.2530      0.00000
     27      25.3183      0.00000
     28      26.4587      0.00000
     29      27.6892      0.00000
     30      29.6181      0.00000
     31      30.7025      0.00000
     32      31.3755      0.00000
     33      32.0201      0.00000
     34      34.0859      0.00000
     35      35.4619      0.00000
     36      36.5576      0.00000
     37      37.3099      0.00000
     38      39.8567      0.00000
     39      42.0513      0.00000
     40      43.6293      0.00000

 k-point  10 :       0.3333    0.0000    0.5000
  band No.  band energies     occupation 
      1     -13.5646      2.00000
      2     -10.3388      2.00000
      3      -9.8136      2.00000
      4      -9.2207      2.00000
      5      -6.3976      2.00000
      6      -5.7941      2.00000
      7      -3.8228      2.00000
      8      -2.1700      2.00000
      9      -1.4105      2.00000
     10      -0.1573      2.00000
     11       0.6147      2.00000
     12       2.1724      2.00000
     13       2.8853      2.00000
     14       4.0054      2.00000
     15       4.4330      2.00000
     16       7.1299      2.00660
     17       9.3813      0.09492
     18      11.2905      0.00000
     19      13.2504      0.00000
     20      17.2497      0.00000
     21      17.6164      0.00000
     22      18.6804      0.00000
     23      19.5853      0.00000
     24      20.7681      0.00000
     25      22.0867      0.00000
     26      23.5794      0.00000
     27      24.5290      0.00000
     28      25.6781      0.00000
     29      27.0919      0.00000
     30      28.5506      0.00000
     31      29.7025      0.00000
     32      30.1181      0.00000
     33      31.1122      0.00000
     34      32.6079      0.00000
     35      34.4051      0.00000
     36      36.1117      0.00000
     37      37.3016      0.00000
     38      39.3522      0.00000
     39      40.6498      0.00000
     40      43.3042      0.00000

 k-point  11 :       0.3333    0.3333    0.5000
  band No.  band energies     occupation 
      1     -13.1405      2.00000
      2     -12.4546      2.00000
      3     -12.0131      2.00000
      4      -7.6701      2.00000
      5      -6.7119      2.00000
      6      -4.9342      2.00000
      7      -2.1187      2.00000
      8      -1.6072      2.00000
      9      -1.0803      2.00000
     10      -0.5906      2.00000
     11      -0.4318      2.00000
     12       0.2750      2.00000
     13       1.1979      2.00000
     14       1.5926      2.00000
     15       4.2222      2.00000
     16       6.1458      2.02890
     17       7.4120      1.32588
     18      13.2745      0.00000
     19      15.1526      0.00000
     20      16.7806      0.00000
     21      18.0000      0.00000
     22      19.5977      0.00000
     23      20.6849      0.00000
     24      21.2848      0.00000
     25      21.9512      0.00000
     26      22.6002      0.00000
     27      23.8141      0.00000
     28      24.4118      0.00000
     29      26.3293      0.00000
     30      26.8946      0.00000
     31      28.2546      0.00000
     32      29.5456      0.00000
     33      30.2548      0.00000
     34      31.0039      0.00000
     35      32.1351      0.00000
     36      35.2567      0.00000
     37      36.1042      0.00000
     38      38.5724      0.00000
     39      40.1542      0.00000
     40      41.2881      0.00000

 k-point  12 :      -0.3333    0.3333    0.5000
  band No.  band energies     occupation 
      1     -14.3621      2.00000
      2     -11.9090      2.00000
      3     -10.3960      2.00000
      4      -8.4649      2.00000
      5      -5.6972      2.00000
      6      -5.3369      2.00000
      7      -3.3845      2.00000
      8      -2.4258      2.00000
      9      -2.0032      2.00000
     10      -0.4199      2.00000
     11       0.6451      2.00000
     12       2.4211      2.00000
     13       2.9333      2.00000
     14       3.3577      2.00000
     15       4.2614      2.00000
     16       6.0445      2.01477
     17       8.7680      0.41161
     18      10.7385      0.00000
     19      13.4811      0.00000
     20      16.2588      0.00000
     21      17.4468      0.00000
     22      18.6088      0.00000
     23      19.3803      0.00000
     24      20.7825      0.00000
     25      22.2924      0.00000
     26      23.0216      0.00000
     27      24.2021      0.00000
     28      25.2312      0.00000
     29      26.4088      0.00000
     30      28.6429      0.00000
     31      30.1574      0.00000
     32      30.7482      0.00000
     33      33.0227      0.00000
     34      33.5977      0.00000
     35      34.4150      0.00000
     36      35.9491      0.00000
     37      37.9714      0.00000
     38      38.8703      0.00000
     39      40.7206      0.00000
     40      43.4823      0.00000


----------------------------------------- Iteration    1(   2)  ---------------------------------------


     EDDAV:  cpu time    1.51: real time    1.52
 BZINTS: Fermi energy:  3.891719; 32.000000 electrons
         Band energy:-192.078061;  BLOECHL correction: -0.063916
       DOS:  cpu time    0.00: real time    0.00
    --------------------------------------------
      LOOP:  cpu time    1.52: real time    1.52

 eigenvalue-minimisations  :  1360
 total energy-change (2. order) :-0.1126138E+03  (-0.1077478E+03)
 number of electron      32.0000000 magnetization 
 augmentation part       32.0000000 magnetization 

 Free energy of the ion-electron system (eV)
  ---------------------------------------------------
  alpha Z        PSCENC =        77.44856934
  Ewald energy   TEWEN  =      -976.82658119
  -1/2 Hartree   DENC   =      -262.23397508
  -exchange  EXHF       =         0.00000000
  -V(xc)+E(xc)   XCENC  =       111.01589515
  PAW double counting   =       302.65154477     -311.85538214
  entropy T*S    EENTRO =         0.00000000
  eigenvalues    EBANDS =      -192.07806086
  atomic energy  EATOM  =      1177.18737338
  ---------------------------------------------------
  free energy    TOTEN  =       -74.69061663 eV

  energy without entropy =      -74.69061663  energy(sigma->0) =      -74.69061663


--------------------------------------------------------------------------------------------------------


 E-fermi :   3.8917     XC(G=0): -11.1583     alpha+bet :-11.9278


 k-point   1 :       0.0000    0.0000    0.0000
  band No.  band energies     occupation 
      1     -16.5297      2.00000
      2     -11.5557      2.00000
      3     -11.5344      2.00000
      4     -11.2763      2.00000
      5     -10.4937      2.00000
      6     -10.3144      2.00000
      7     -10.3078      2.00000
      8      -3.8531      2.00000
      9      -3.7701      2.00000
     10      -3.6773      2.00000
     11      -2.4452      2.00000
     12      -0.6604      2.00000
     13      -0.3102      2.00000
     14       2.2105      2.00000
     15       2.3197      2.00000
     16       2.4772      2.00000
     17       6.4856      0.00000
     18       6.6697      0.00000
     19       6.7736      0.00000
     20      10.0598      0.00000
     21      10.4740      0.00000
     22      10.6103      0.00000
     23      10.6557      0.00000
     24      11.0137      0.00000
     25      11.5463      0.00000
     26      14.9286      0.00000
     27      15.5051      0.00000
     28      16.5223      0.00000
     29      16.5330      0.00000
     30      16.7315      0.00000
     31      16.8141      0.00000
     32      16.8349      0.00000
     33      16.8518      0.00000
     34      22.4506      0.00000
     35      22.5916      0.00000
     36      23.2156      0.00000
     37      24.5445      0.00000
     38      24.6075      0.00000
     39      24.8332      0.00000
     40      25.3894      0.00000

 k-point   2 :       0.3333    0.0000    0.0000
  band No.  band energies     occupation 
      1     -15.9152      2.00000
      2     -14.0304      2.00000
      3     -12.2495      2.00000
      4     -12.2049      2.00000
      5      -8.6995      2.00000
      6      -8.6625      2.00000
      7      -6.9120      2.00000
      8      -5.3829      2.00000
      9      -5.2916      2.00000
     10      -3.1987      2.00000
     11      -2.6371      2.00000
     12      -1.7445      2.00000
     13      -1.5989      2.00000
     14       0.3124      2.00000
     15       2.1327      2.00000
     16       2.2460      2.02858
     17       6.9988      0.00000
     18       7.1364      0.00000
     19       9.3636      0.00000
     20      10.6859      0.00000
     21      10.8849      0.00000
     22      11.4473      0.00000
     23      12.8252      0.00000
     24      13.0686      0.00000
     25      13.2182      0.00000
     26      13.2630      0.00000
     27      13.8380      0.00000
     28      15.3158      0.00000
     29      15.3511      0.00000
     30      16.5769      0.00000
     31      17.1370      0.00000
     32      17.3692      0.00000
     33      18.7590      0.00000
     34      18.9725      0.00000
     35      21.8068      0.00000
     36      21.8755      0.00000
     37      22.1566      0.00000
     38      22.3597      0.00000
     39      25.5989      0.00000
     40      25.8001      0.00000

 k-point   3 :       0.3333    0.3333    0.0000
  band No.  band energies     occupation 
      1     -14.6759      2.00000
      2     -14.6556      2.00000
      3     -14.6399      2.00000
      4      -9.9888      2.00000
      5      -9.6439      2.00000
      6      -7.7134      2.00000
      7      -5.2043      2.00000
      8      -5.1628      2.00000
      9      -4.9343      2.00000
     10      -3.8994      2.00000
     11      -3.7323      2.00000
     12      -3.5310      2.00000
     13      -0.3254      2.00000
     14      -0.3009      2.00000
     15      -0.2713      2.00000
     16       4.4567      1.69778
     17       4.7360      0.00000
     18      10.4520      0.00000
     19      10.5425      0.00000
     20      10.6014      0.00000
     21      12.1594      0.00000
     22      12.3256      0.00000
     23      12.3633      0.00000
     24      13.1056      0.00000
     25      13.2202      0.00000
     26      13.3717      0.00000
     27      14.2822      0.00000
     28      14.5410      0.00000
     29      14.8254      0.00000
     30      16.3244      0.00000
     31      16.6528      0.00000
     32      17.6657      0.00000
     33      19.8418      0.00000
     34      20.3272      0.00000
     35      20.6942      0.00000
     36      22.4535      0.00000
     37      23.0831      0.00000
     38      24.0571      0.00000
     39      25.5516      0.00000
     40      25.9934      0.00000

 k-point   4 :      -0.3333    0.3333    0.0000
  band No.  band energies     occupation 
      1     -15.8994      2.00000
      2     -13.9690      2.00000
      3     -12.2785      2.00000
      4     -12.2567      2.00000
      5      -8.5747      2.00000
      6      -8.4938      2.00000
      7      -6.9261      2.00000
      8      -5.4134      2.00000
      9      -5.3654      2.00000
     10      -3.1355      2.00000
     11      -2.8544      2.00000
     12      -1.6620      2.00000
     13      -1.5278      2.00000
     14       0.3995      2.00000
     15       2.0615      2.00000
     16       2.1593      2.02646
     17       7.2373      0.00000
     18       7.2902      0.00000
     19       9.2899      0.00000
     20      10.7038      0.00000
     21      10.7707      0.00000
     22      11.4975      0.00000
     23      13.0227      0.00000
     24      13.0374      0.00000
     25      13.1417      0.00000
     26      13.2558      0.00000
     27      13.5187      0.00000
     28      15.2738      0.00000
     29      15.3186      0.00000
     30      16.6901      0.00000
     31      17.3300      0.00000
     32      17.3676      0.00000
     33      18.8918      0.00000
     34      18.9624      0.00000
     35      21.7759      0.00000
     36      21.8241      0.00000
     37      22.1528      0.00000
     38      22.4084      0.00000
     39      25.4656      0.00000
     40      25.9759      0.00000

 k-point   5 :       0.0000    0.0000    0.2500
  band No.  band energies     occupation 
      1     -16.3963      2.00000
      2     -11.4247      2.00000
      3     -11.3965      2.00000
      4     -11.1832      2.00000
      5     -10.4411      2.00000
      6     -10.2216      2.00000
      7     -10.1991      2.00000
      8      -3.8360      2.00000
      9      -3.7994      2.00000
     10      -3.7235      2.00000
     11      -3.5583      2.00000
     12      -0.5672      2.00000
     13      -0.2731      2.00000
     14       1.4530      2.00000
     15       1.4893      2.00000
     16       1.6957      2.00000
     17       5.5539      0.00000
     18       5.7533      0.00000
     19       5.8386      0.00000
     20      10.5928      0.00000
     21      10.8139      0.00000
     22      10.8432      0.00000
     23      11.0235      0.00000
     24      11.5512      0.00000
     25      12.8473      0.00000
     26      14.6123      0.00000
     27      15.7777      0.00000
     28      17.7456      0.00000
     29      17.7940      0.00000
     30      17.8316      0.00000
     31      18.8789      0.00000
     32      18.9003      0.00000
     33      19.1275      0.00000
     34      22.4096      0.00000
     35      22.6355      0.00000
     36      23.1306      0.00000
     37      24.6189      0.00000
     38      24.7536      0.00000
     39      25.0534      0.00000
     40      25.4244      0.00000

 k-point   6 :       0.3333    0.0000    0.2500
  band No.  band energies     occupation 
      1     -15.7617      2.00000
      2     -13.8982      2.00000
      3     -12.1196      2.00000
      4     -12.0603      2.00000
      5      -8.5670      2.00000
      6      -8.5536      2.00000
      7      -6.8008      2.00000
      8      -5.2848      2.00000
      9      -5.2442      2.00000
     10      -3.1275      2.00000
     11      -2.8265      2.00000
     12      -2.5766      2.00000
     13      -1.4583      2.00000
     14      -0.6572      2.00000
     15       1.2348      2.00000
     16       1.3500      2.01964
     17       6.3379     -0.01836
     18       6.4497      0.00000
     19       8.8075      0.00000
     20      11.0989      0.00000
     21      11.3745      0.00000
     22      12.7784      0.00000
     23      13.0676      0.00000
     24      13.3072      0.00000
     25      13.5923      0.00000
     26      13.9674      0.00000
     27      15.5324      0.00000
     28      16.3489      0.00000
     29      16.3887      0.00000
     30      16.9424      0.00000
     31      17.7533      0.00000
     32      18.0816      0.00000
     33      19.1032      0.00000
     34      19.8189      0.00000
     35      20.8534      0.00000
     36      20.9749      0.00000
     37      23.5510      0.00000
     38      23.8853      0.00000
     39      25.0000      0.00000
     40      26.3010      0.00000

 k-point   7 :       0.3333    0.3333    0.2500
  band No.  band energies     occupation 
      1     -14.5392      2.00000
      2     -14.4988      2.00000
      3     -14.4798      2.00000
      4      -9.8786      2.00000
      5      -9.5369      2.00000
      6      -7.6430      2.00000
      7      -5.1239      2.00000
      8      -5.0917      2.00000
      9      -4.8253      2.00000
     10      -3.8024      2.00000
     11      -3.5712      2.00000
     12      -3.4499      2.00000
     13      -1.3753      2.00000
     14      -1.3187      2.00000
     15      -1.2669      2.00000
     16       3.7651      1.95261
     17       4.0579      0.04448
     18       9.9604      0.00000
     19      10.0161      0.00000
     20      10.0295      0.00000
     21      12.9592      0.00000
     22      13.1859      0.00000
     23      13.2018      0.00000
     24      14.4176      0.00000
     25      14.4499      0.00000
     26      14.7874      0.00000
     27      14.8108      0.00000
     28      14.8527      0.00000
     29      15.0013      0.00000
     30      15.3299      0.00000
     31      16.9469      0.00000
     32      17.4368      0.00000
     33      20.2414      0.00000
     34      20.6039      0.00000
     35      20.9032      0.00000
     36      21.4978      0.00000
     37      22.5832      0.00000
     38      22.6548      0.00000
     39      22.7774      0.00000
     40      23.6944      0.00000

 k-point   8 :      -0.3333    0.3333    0.2500
  band No.  band energies     occupation 
      1     -15.7552      2.00000
      2     -13.8657      2.00000
      3     -12.1644      2.00000
      4     -12.1470      2.00000
      5      -8.4821      2.00000
      6      -8.4524      2.00000
      7      -6.8104      2.00000
      8      -5.3298      2.00000
      9      -5.2386      2.00000
     10      -3.1429      2.00000
     11      -2.8449      2.00000
     12      -2.7490      2.00000
     13      -1.5289      2.00000
     14      -0.5597      2.00000
     15       1.1685      2.00000
     16       1.1988      2.02003
     17       6.5352     -0.01888
     18       6.5956      0.00000
     19       8.6868      0.00000
     20      10.9899      0.00000
     21      11.5051      0.00000
     22      12.7969      0.00000
     23      13.3368      0.00000
     24      13.4616      0.00000
     25      13.5860      0.00000
     26      13.7728      0.00000
     27      15.6018      0.00000
     28      16.4131      0.00000
     29      16.4910      0.00000
     30      17.5343      0.00000
     31      17.9607      0.00000
     32      18.4488      0.00000
     33      20.1646      0.00000
     34      20.6748      0.00000
     35      21.3303      0.00000
     36      22.1615      0.00000
     37      23.9302      0.00000
     38      24.4605      0.00000
     39      25.9039      0.00000
     40      27.1054      0.00000

 k-point   9 :       0.0000    0.0000    0.5000
  band No.  band energies     occupation 
      1     -16.2304      2.00000
      2     -11.3181      2.00000
      3     -11.2928      2.00000
      4     -11.0564      2.00000
      5     -10.3169      2.00000
      6     -10.1290      2.00000
      7     -10.1028      2.00000
      8      -4.4647      2.00000
      9      -3.8371      2.00000
     10      -3.6896      2.00000
     11      -3.5165      2.00000
     12      -0.5669      2.00000
     13      -0.2300      2.00000
     14       0.7193      2.00000
     15       0.7631      2.00000
     16       0.9332      2.00000
     17       4.7718      0.00000
     18       4.9417      0.00000
     19       4.9744      0.00000
     20      10.7834      0.00000
     21      11.0253      0.00000
     22      11.1161      0.00000
     23      11.1573      0.00000
     24      11.6247      0.00000
     25      14.4914      0.00000
     26      15.9830      0.00000
     27      16.4912      0.00000
     28      18.0808      0.00000
     29      18.1121      0.00000
     30      18.1617      0.00000
     31      22.4702      0.00000
     32      22.7315      0.00000
     33      22.8647      0.00000
     34      23.0814      0.00000
     35      23.5137      0.00000
     36      23.6140      0.00000
     37      23.7703      0.00000
     38      23.8953      0.00000
     39      24.5391      0.00000
     40      24.9844      0.00000

 k-point  10 :       0.3333    0.0000    0.5000
  band No.  band energies     occupation 
      1     -15.5986      2.00000
      2     -13.7398      2.00000
      3     -11.9951      2.00000
      4     -11.9380      2.00000
      5      -8.5066      2.00000
      6      -8.4942      2.00000
      7      -6.7584      2.00000
      8      -5.2454      2.00000
      9      -5.1919      2.00000
     10      -3.7290      2.00000
     11      -3.0837      2.00000
     12      -2.4813      2.00000
     13      -1.5451      2.00000
     14      -1.4849      2.00000
     15       0.4584      2.00000
     16       0.5614      2.00000
     17       5.6825     -0.02910
     18       5.8464      0.00000
     19       8.1118      0.00000
     20      11.2495      0.00000
     21      11.5423      0.00000
     22      12.4255      0.00000
     23      13.4033      0.00000
     24      13.5650      0.00000
     25      13.9265      0.00000
     26      15.9266      0.00000
     27      16.0009      0.00000
     28      16.9191      0.00000
     29      17.1889      0.00000
     30      17.8215      0.00000
     31      18.5407      0.00000
     32      18.7976      0.00000
     33      19.5622      0.00000
     34      20.5957      0.00000
     35      23.4928      0.00000
     36      23.5576      0.00000
     37      24.0600      0.00000
     38      24.6379      0.00000
     39      25.1008      0.00000
     40      25.1650      0.00000

 k-point  11 :       0.3333    0.3333    0.5000
  band No.  band energies     occupation 
      1     -14.3875      2.00000
      2     -14.3647      2.00000
      3     -14.3586      2.00000
      4      -9.7776      2.00000
      5      -9.4571      2.00000
      6      -7.5942      2.00000
      7      -5.1156      2.00000
      8      -5.0408      2.00000
      9      -4.8574      2.00000
     10      -3.7793      2.00000
     11      -3.6609      2.00000
     12      -3.5581      2.00000
     13      -2.2476      2.00000
     14      -2.2038      2.00000
     15      -2.1558      2.00000
     16       3.0453      2.00000
     17       3.2961      0.30275
     18       9.4994      0.00000
     19       9.5309      0.00000
     20       9.7603      0.00000
     21      13.2225      0.00000
     22      13.4523      0.00000
     23      13.5594      0.00000
     24      14.1119      0.00000
     25      14.7058      0.00000
     26      14.9737      0.00000
     27      15.1857      0.00000
     28      17.0406      0.00000
     29      17.1716      0.00000
     30      17.2212      0.00000
     31      17.8325      0.00000
     32      18.6213      0.00000
     33      20.7504      0.00000
     34      21.4544      0.00000
     35      21.9231      0.00000
     36      22.5540      0.00000
     37      23.2438      0.00000
     38      23.6713      0.00000
     39      24.4731      0.00000
     40      26.1028      0.00000

 k-point  12 :      -0.3333    0.3333    0.5000
  band No.  band energies     occupation 
      1     -15.6075      2.00000
      2     -13.7376      2.00000
      3     -12.0480      2.00000
      4     -12.0188      2.00000
      5      -8.3914      2.00000
      6      -8.3598      2.00000
      7      -6.7679      2.00000
      8      -5.2748      2.00000
      9      -5.1841      2.00000
     10      -3.7157      2.00000
     11      -3.0669      2.00000
     12      -2.6964      2.00000
     13      -1.5213      2.00000
     14      -1.4028      2.00000
     15       0.4097      2.00000
     16       0.4710      2.00000
     17       5.7616     -0.02754
     18       5.8583      0.00000
     19       8.1285      0.00000
     20      11.1042      0.00000
     21      11.6792      0.00000
     22      12.5288      0.00000
     23      13.5864      0.00000
     24      13.6874      0.00000
     25      13.8599      0.00000
     26      15.9107      0.00000
     27      16.0254      0.00000
     28      17.0368      0.00000
     29      17.6796      0.00000
     30      18.1162      0.00000
     31      19.1126      0.00000
     32      19.5618      0.00000
     33      20.3815      0.00000
     34      21.7179      0.00000
     35      23.6927      0.00000
     36      24.6353      0.00000
     37      25.0122      0.00000
     38      25.3514      0.00000
     39      25.9656      0.00000
     40      26.5959      0.00000


----------------------------------------- Iteration    1(   3)  ---------------------------------------


     EDDAV:  cpu time    1.38: real time    1.39
 BZINTS: Fermi energy:  3.743118; 32.000000 electrons
         Band energy:-195.392274;  BLOECHL correction: -0.063853
       DOS:  cpu time    0.00: real time    0.00
    --------------------------------------------
      LOOP:  cpu time    1.39: real time    1.39

 eigenvalue-minimisations  :  1240
 total energy-change (2. order) :-0.3314214E+01  (-0.3309527E+01)
 number of electron      32.0000000 magnetization 
 augmentation part       32.0000000 magnetization 

 Free energy of the ion-electron system (eV)
  ---------------------------------------------------
  alpha Z        PSCENC =        77.44856934
  Ewald energy   TEWEN  =      -976.82658119
  -1/2 Hartree   DENC   =      -262.23397508
  -exchange  EXHF       =         0.00000000
  -V(xc)+E(xc)   XCENC  =       111.01589515
  PAW double counting   =       302.65154477     -311.85538214
  entropy T*S    EENTRO =         0.00000000
  eigenvalues    EBANDS =      -195.39227445
  atomic energy  EATOM  =      1177.18737338
  ---------------------------------------------------
  free energy    TOTEN  =       -78.00483021 eV

  energy without entropy =      -78.00483021  energy(sigma->0) =      -78.00483021


--------------------------------------------------------------------------------------------------------


 E-fermi :   3.7431     XC(G=0): -11.1583     alpha+bet :-11.9278


 k-point   1 :       0.0000    0.0000    0.0000
  band No.  band energies     occupation 
      1     -16.5927      2.00000
      2     -11.5876      2.00000
      3     -11.5874      2.00000
      4     -11.3460      2.00000
      5     -10.5747      2.00000
      6     -10.3602      2.00000
      7     -10.3601      2.00000
      8      -3.9738      2.00000
      9      -3.9451      2.00000
     10      -3.9448      2.00000
     11      -2.5212      2.00000
     12      -0.8769      2.00000
     13      -0.6109      2.00000
     14       2.1225      2.00000
     15       2.1230      2.00000
     16       2.3530      2.00000
     17       6.2930      0.00000
     18       6.5295      0.00000
     19       6.5301      0.00000
     20       9.9990      0.00000
     21      10.3111      0.00000
     22      10.5485      0.00000
     23      10.5486      0.00000
     24      10.8469      0.00000
     25      11.3822      0.00000
     26      14.7828      0.00000
     27      15.3959      0.00000
     28      16.4858      0.00000
     29      16.4861      0.00000
     30      16.6718      0.00000
     31      16.7801      0.00000
     32      16.8046      0.00000
     33      16.8047      0.00000
     34      22.1545      0.00000
     35      22.1833      0.00000
     36      22.2354      0.00000
     37      24.4433      0.00000
     38      24.4569      0.00000
     39      24.4983      0.00000
     40      25.0661      0.00000

 k-point   2 :       0.3333    0.0000    0.0000
  band No.  band energies     occupation 
      1     -15.9553      2.00000
      2     -14.0808      2.00000
      3     -12.2769      2.00000
      4     -12.2346      2.00000
      5      -8.7399      2.00000
      6      -8.7150      2.00000
      7      -6.9671      2.00000
      8      -5.4449      2.00000
      9      -5.4248      2.00000
     10      -3.3405      2.00000
     11      -2.8575      2.00000
     12      -1.8220      2.00000
     13      -1.8012      2.00000
     14       0.2130      2.00000
     15       1.9993      2.00000
     16       2.1010      2.02744
     17       6.8347      0.00000
     18       6.9405      0.00000
     19       9.2323      0.00000
     20      10.6368      0.00000
     21      10.7861      0.00000
     22      11.3609      0.00000
     23      12.7385      0.00000
     24      12.9878      0.00000
     25      13.0263      0.00000
     26      13.1697      0.00000
     27      13.6610      0.00000
     28      15.2642      0.00000
     29      15.3183      0.00000
     30      16.4639      0.00000
     31      17.0360      0.00000
     32      17.2302      0.00000
     33      18.5850      0.00000
     34      18.8509      0.00000
     35      21.7658      0.00000
     36      21.7871      0.00000
     37      21.9744      0.00000
     38      21.9783      0.00000
     39      25.3610      0.00000
     40      25.5420      0.00000

 k-point   3 :       0.3333    0.3333    0.0000
  band No.  band energies     occupation 
      1     -14.7070      2.00000
      2     -14.6828      2.00000
      3     -14.6828      2.00000
      4     -10.0335      2.00000
      5      -9.7219      2.00000
      6      -7.7893      2.00000
      7      -5.2835      2.00000
      8      -5.2832      2.00000
      9      -5.0716      2.00000
     10      -4.0260      2.00000
     11      -3.8179      2.00000
     12      -3.8171      2.00000
     13      -0.4317      2.00000
     14      -0.3829      2.00000
     15      -0.3826      2.00000
     16       4.3184      1.69730
     17       4.5736      0.00000
     18      10.3359      0.00000
     19      10.3373      0.00000
     20      10.4191      0.00000
     21      12.0825      0.00000
     22      12.2211      0.00000
     23      12.2211      0.00000
     24      13.0245      0.00000
     25      13.1188      0.00000
     26      13.1190      0.00000
     27      14.1201      0.00000
     28      14.1205      0.00000
     29      14.6778      0.00000
     30      15.9405      0.00000
     31      16.3487      0.00000
     32      17.5114      0.00000
     33      19.6781      0.00000
     34      19.7306      0.00000
     35      19.8505      0.00000
     36      19.8705      0.00000
     37      22.1039      0.00000
     38      22.4028      0.00000
     39      24.7804      0.00000
     40      24.8774      0.00000

 k-point   4 :      -0.3333    0.3333    0.0000
  band No.  band energies     occupation 
      1     -15.9475      2.00000
      2     -14.0462      2.00000
      3     -12.3215      2.00000
      4     -12.3213      2.00000
      5      -8.6192      2.00000
      6      -8.6188      2.00000
      7      -6.9967      2.00000
      8      -5.4847      2.00000
      9      -5.4845      2.00000
     10      -3.3401      2.00000
     11      -2.9430      2.00000
     12      -1.7839      2.00000
     13      -1.7331      2.00000
     14       0.2945      2.00000
     15       1.9383      2.00000
     16       1.9388      2.02758
     17       7.0218      0.00000
     18       7.0224      0.00000
     19       9.1422      0.00000
     20      10.6121      0.00000
     21      10.6891      0.00000
     22      11.3998      0.00000
     23      12.9585      0.00000
     24      12.9590      0.00000
     25      12.9988      0.00000
     26      13.2013      0.00000
     27      13.3545      0.00000
     28      15.2321      0.00000
     29      15.2324      0.00000
     30      16.6081      0.00000
     31      17.2604      0.00000
     32      17.2630      0.00000
     33      18.6406      0.00000
     34      18.8140      0.00000
     35      21.7225      0.00000
     36      21.7290      0.00000
     37      21.9887      0.00000
     38      22.0520      0.00000
     39      25.2258      0.00000
     40      25.7918      0.00000

 k-point   5 :       0.0000    0.0000    0.2500
  band No.  band energies     occupation 
      1     -16.4373      2.00000
      2     -11.4703      2.00000
      3     -11.4702      2.00000
      4     -11.2278      2.00000
      5     -10.4808      2.00000
      6     -10.2631      2.00000
      7     -10.2629      2.00000
      8      -3.9424      2.00000
      9      -3.9141      2.00000
     10      -3.9139      2.00000
     11      -3.6174      2.00000
     12      -0.8558      2.00000
     13      -0.5889      2.00000
     14       1.3354      2.00000
     15       1.3358      2.00000
     16       1.5589      2.00000
     17       5.3789      0.00000
     18       5.5806      0.00000
     19       5.5811      0.00000
     20      10.5186      0.00000
     21      10.7555      0.00000
     22      10.7555      0.00000
     23      10.9027      0.00000
     24      11.4397      0.00000
     25      12.7330      0.00000
     26      14.5015      0.00000
     27      15.6662      0.00000
     28      17.6812      0.00000
     29      17.7182      0.00000
     30      17.7183      0.00000
     31      18.8023      0.00000
     32      18.8027      0.00000
     33      19.0172      0.00000
     34      22.1680      0.00000
     35      22.1879      0.00000
     36      22.1956      0.00000
     37      24.4460      0.00000
     38      24.5916      0.00000
     39      24.6210      0.00000
     40      24.8332      0.00000

 k-point   6 :       0.3333    0.0000    0.2500
  band No.  band energies     occupation 
      1     -15.8055      2.00000
      2     -13.9470      2.00000
      3     -12.1579      2.00000
      4     -12.1159      2.00000
      5      -8.6537      2.00000
      6      -8.6280      2.00000
      7      -6.8926      2.00000
      8      -5.3921      2.00000
      9      -5.3735      2.00000
     10      -3.3106      2.00000
     11      -2.8682      2.00000
     12      -2.8156      2.00000
     13      -1.7957      2.00000
     14      -0.7494      2.00000
     15       1.1484      2.00000
     16       1.2432      2.01926
     17       6.1185     -0.01930
     18       6.2024      0.00000
     19       8.5463      0.00000
     20      10.9929      0.00000
     21      11.2672      0.00000
     22      12.6307      0.00000
     23      12.9847      0.00000
     24      13.2330      0.00000
     25      13.4822      0.00000
     26      13.7127      0.00000
     27      15.4568      0.00000
     28      16.3091      0.00000
     29      16.3323      0.00000
     30      16.7447      0.00000
     31      17.5542      0.00000
     32      17.8342      0.00000
     33      18.7761      0.00000
     34      19.4024      0.00000
     35      20.7198      0.00000
     36      20.7484      0.00000
     37      23.3744      0.00000
     38      23.4120      0.00000
     39      23.6244      0.00000
     40      25.7196      0.00000

 k-point   7 :       0.3333    0.3333    0.2500
  band No.  band energies     occupation 
      1     -14.5680      2.00000
      2     -14.5441      2.00000
      3     -14.5439      2.00000
      4      -9.9348      2.00000
      5      -9.6212      2.00000
      6      -7.7198      2.00000
      7      -5.2252      2.00000
      8      -5.2251      2.00000
      9      -5.0117      2.00000
     10      -3.9838      2.00000
     11      -3.7750      2.00000
     12      -3.7747      2.00000
     13      -1.4330      2.00000
     14      -1.3854      2.00000
     15      -1.3852      2.00000
     16       3.5876      1.95511
     17       3.8348      0.05109
     18       9.8156      0.00000
     19       9.8161      0.00000
     20       9.8951      0.00000
     21      12.8470      0.00000
     22      13.0766      0.00000
     23      13.0771      0.00000
     24      14.3021      0.00000
     25      14.3033      0.00000
     26      14.7281      0.00000
     27      14.7621      0.00000
     28      14.7638      0.00000
     29      14.8750      0.00000
     30      15.2796      0.00000
     31      16.8092      0.00000
     32      17.2880      0.00000
     33      19.9957      0.00000
     34      20.1981      0.00000
     35      20.2996      0.00000
     36      20.6291      0.00000
     37      22.5218      0.00000
     38      22.6088      0.00000
     39      22.6162      0.00000
     40      23.4181      0.00000

 k-point   8 :      -0.3333    0.3333    0.2500
  band No.  band energies     occupation 
      1     -15.7980      2.00000
      2     -13.9132      2.00000
      3     -12.2021      2.00000
      4     -12.2020      2.00000
      5      -8.5323      2.00000
      6      -8.5321      2.00000
      7      -6.9234      2.00000
      8      -5.4331      2.00000
      9      -5.4327      2.00000
     10      -3.3096      2.00000
     11      -2.9112      2.00000
     12      -2.8427      2.00000
     13      -1.7067      2.00000
     14      -0.6725      2.00000
     15       1.0875      2.00000
     16       1.0877      2.01895
     17       6.2852     -0.01927
     18       6.2869      0.00000
     19       8.4849      0.00000
     20      10.8160      0.00000
     21      11.3589      0.00000
     22      12.6238      0.00000
     23      13.2179      0.00000
     24      13.2183      0.00000
     25      13.4035      0.00000
     26      13.4783      0.00000
     27      15.4804      0.00000
     28      16.2560      0.00000
     29      16.2566      0.00000
     30      16.8930      0.00000
     31      17.7694      0.00000
     32      17.7711      0.00000
     33      18.6725      0.00000
     34      19.5694      0.00000
     35      20.8114      0.00000
     36      20.8157      0.00000
     37      23.3538      0.00000
     38      23.3992      0.00000
     39      23.5091      0.00000
     40      25.7104      0.00000

 k-point   9 :       0.0000    0.0000    0.5000
  band No.  band energies     occupation 
      1     -16.2717      2.00000
      2     -11.3474      2.00000
      3     -11.3473      2.00000
      4     -11.1034      2.00000
      5     -10.3833      2.00000
      6     -10.1625      2.00000
      7     -10.1623      2.00000
      8      -4.5362      2.00000
      9      -3.9102      2.00000
     10      -3.8827      2.00000
     11      -3.8819      2.00000
     12      -0.8349      2.00000
     13      -0.5669      2.00000
     14       0.6408      2.00000
     15       0.6410      2.00000
     16       0.8584      2.00000
     17       4.6127      0.00000
     18       4.7905      0.00000
     19       4.7909      0.00000
     20      10.7302      0.00000
     21      10.9573      0.00000
     22      10.9653      0.00000
     23      10.9654      0.00000
     24      11.4961      0.00000
     25      14.3146      0.00000
     26      15.8416      0.00000
     27      16.4239      0.00000
     28      18.0193      0.00000
     29      18.0600      0.00000
     30      18.0601      0.00000
     31      22.1677      0.00000
     32      22.2068      0.00000
     33      22.2143      0.00000
     34      22.6731      0.00000
     35      22.7164      0.00000
     36      23.2731      0.00000
     37      23.4379      0.00000
     38      23.4563      0.00000
     39      23.5824      0.00000
     40      24.7405      0.00000

 k-point  10 :       0.3333    0.0000    0.5000
  band No.  band energies     occupation 
      1     -15.6462      2.00000
      2     -13.8055      2.00000
      3     -12.0328      2.00000
      4     -11.9915      2.00000
      5      -8.5649      2.00000
      6      -8.5382      2.00000
      7      -6.8162      2.00000
      8      -5.3390      2.00000
      9      -5.3210      2.00000
     10      -3.7646      2.00000
     11      -3.2805      2.00000
     12      -2.7744      2.00000
     13      -1.7700      2.00000
     14      -1.5721      2.00000
     15       0.4076      2.00000
     16       0.4975      2.00000
     17       5.4942     -0.03132
     18       5.5620      0.00000
     19       7.9622      0.00000
     20      11.1782      0.00000
     21      11.3943      0.00000
     22      12.3030      0.00000
     23      13.2437      0.00000
     24      13.4910      0.00000
     25      13.7651      0.00000
     26      15.8815      0.00000
     27      15.9168      0.00000
     28      16.8809      0.00000
     29      16.9873      0.00000
     30      17.7570      0.00000
     31      18.3425      0.00000
     32      18.6281      0.00000
     33      18.8773      0.00000
     34      20.2240      0.00000
     35      23.3807      0.00000
     36      23.4539      0.00000
     37      23.9531      0.00000
     38      24.3999      0.00000
     39      24.6734      0.00000
     40      24.8109      0.00000

 k-point  11 :       0.3333    0.3333    0.5000
  band No.  band energies     occupation 
      1     -14.4208      2.00000
      2     -14.3974      2.00000
      3     -14.3973      2.00000
      4      -9.8319      2.00000
      5      -9.5163      2.00000
      6      -7.6490      2.00000
      7      -5.1660      2.00000
      8      -5.1657      2.00000
      9      -4.9510      2.00000
     10      -3.9424      2.00000
     11      -3.7321      2.00000
     12      -3.7316      2.00000
     13      -2.2830      2.00000
     14      -2.2370      2.00000
     15      -2.2368      2.00000
     16       2.9431      2.00000
     17       3.1831      0.30291
     18       9.3542      0.00000
     19       9.3565      0.00000
     20       9.4310      0.00000
     21      13.0506      0.00000
     22      13.2795      0.00000
     23      13.2797      0.00000
     24      13.9849      0.00000
     25      14.4439      0.00000
     26      14.4444      0.00000
     27      15.0277      0.00000
     28      16.9566      0.00000
     29      17.0662      0.00000
     30      17.0663      0.00000
     31      17.4347      0.00000
     32      17.9659      0.00000
     33      20.2257      0.00000
     34      20.4620      0.00000
     35      20.4687      0.00000
     36      20.8684      0.00000
     37      23.1357      0.00000
     38      23.1420      0.00000
     39      23.1677      0.00000
     40      25.5267      0.00000

 k-point  12 :      -0.3333    0.3333    0.5000
  band No.  band energies     occupation 
      1     -15.6389      2.00000
      2     -13.7726      2.00000
      3     -12.0767      2.00000
      4     -12.0766      2.00000
      5      -8.4425      2.00000
      6      -8.4423      2.00000
      7      -6.8481      2.00000
      8      -5.3809      2.00000
      9      -5.3806      2.00000
     10      -3.7491      2.00000
     11      -3.2786      2.00000
     12      -2.8618      2.00000
     13      -1.6802      2.00000
     14      -1.4982      2.00000
     15       0.3470      2.00000
     16       0.3474      2.00000
     17       5.6453     -0.03161
     18       5.6462      0.00000
     19       7.9198      0.00000
     20      11.0028      0.00000
     21      11.4890      0.00000
     22      12.2911      0.00000
     23      13.4523      0.00000
     24      13.4799      0.00000
     25      13.4801      0.00000
     26      15.8467      0.00000
     27      15.8471      0.00000
     28      16.8968      0.00000
     29      17.1319      0.00000
     30      17.7575      0.00000
     31      18.5943      0.00000
     32      18.6019      0.00000
     33      18.7060      0.00000
     34      20.4572      0.00000
     35      23.4250      0.00000
     36      23.4465      0.00000
     37      24.0741      0.00000
     38      24.3295      0.00000
     39      24.5247      0.00000
     40      24.8122      0.00000


----------------------------------------- Iteration    1(   4)  ---------------------------------------


     EDDAV:  cpu time    1.31: real time    1.31
 BZINTS: Fermi energy:  3.742114; 32.000000 electrons
         Band energy:-195.407396;  BLOECHL correction: -0.063877
       DOS:  cpu time    0.00: real time    0.00
    --------------------------------------------
      LOOP:  cpu time    1.31: real time    1.32

 eigenvalue-minimisations  :  1180
 total energy-change (2. order) :-0.1512132E-01  (-0.1508487E-01)
 number of electron      32.0000000 magnetization 
 augmentation part       32.0000000 magnetization 

 Free energy of the ion-electron system (eV)
  ---------------------------------------------------
  alpha Z        PSCENC =        77.44856934
  Ewald energy   TEWEN  =      -976.82658119
  -1/2 Hartree   DENC   =      -262.23397508
  -exchange  EXHF       =         0.00000000
  -V(xc)+E(xc)   XCENC  =       111.01589515
  PAW double counting   =       302.65154477     -311.85538214
  entropy T*S    EENTRO =         0.00000000
  eigenvalues    EBANDS =      -195.40739577
  atomic energy  EATOM  =      1177.18737338
  ---------------------------------------------------
  free energy    TOTEN  =       -78.01995153 eV

  energy without entropy =      -78.01995153  energy(sigma->0) =      -78.01995153


--------------------------------------------------------------------------------------------------------


 E-fermi :   3.7421     XC(G=0): -11.1583     alpha+bet :-11.9278


 k-point   1 :       0.0000    0.0000    0.0000
  band No.  band energies     occupation 
      1     -16.5929      2.00000
      2     -11.5878      2.00000
      3     -11.5878      2.00000
      4     -11.3465      2.00000
      5     -10.5751      2.00000
      6     -10.3604      2.00000
      7     -10.3604      2.00000
      8      -3.9749      2.00000
      9      -3.9455      2.00000
     10      -3.9455      2.00000
     11      -2.5216      2.00000
     12      -0.8777      2.00000
     13      -0.6117      2.00000
     14       2.1219      2.00000
     15       2.1219      2.00000
     16       2.3524      2.00000
     17       6.2918      0.00000
     18       6.5288      0.00000
     19       6.5288      0.00000
     20       9.9987      0.00000
     21      10.3110      0.00000
     22      10.5485      0.00000
     23      10.5485      0.00000
     24      10.8468      0.00000
     25      11.3821      0.00000
     26      14.7825      0.00000
     27      15.3956      0.00000
     28      16.4857      0.00000
     29      16.4857      0.00000
     30      16.6714      0.00000
     31      16.7799      0.00000
     32      16.8046      0.00000
     33      16.8046      0.00000
     34      22.1397      0.00000
     35      22.1730      0.00000
     36      22.1833      0.00000
[...]
     31      19.2372      0.00000
     32      19.2372      0.00000
     33      19.4050      0.00000
     34      25.1429      0.00000
     35      25.1429      0.00000
     36      25.1469      0.00000
     37      25.3462      0.00000
     38      25.4912      0.00000
     39      25.4912      0.00000
     40      26.5293      0.00000

 k-point   6 :       0.3333    0.0000    0.2500
  band No.  band energies     occupation 
      1     -13.7103      2.00000
      2     -11.7814      2.00000
      3      -9.9142      2.00000
      4      -9.8816      2.00000
      5      -6.2548      2.00000
      6      -6.2276      2.00000
      7      -4.4506      2.00000
      8      -2.8816      2.00000
      9      -2.8183      2.00000
     10      -1.7217      2.00000
     11      -0.5627      2.00000
     12      -0.1192      2.00000
     13       0.4774      2.00000
     14       1.0294      2.00000
     15       2.4651      2.00000
     16       2.5451      2.02731
     17       7.5919     -0.02698
     18       7.6404      0.00000
     19      10.0518      0.00000
     20      12.9774      0.00000
     21      13.3230      0.00000
     22      13.8085      0.00000
     23      14.5416      0.00000
     24      14.9839      0.00000
     25      15.2732      0.00000
     26      15.7288      0.00000
     27      16.1687      0.00000
     28      16.6322      0.00000
     29      16.6750      0.00000
     30      19.0188      0.00000
     31      19.0957      0.00000
     32      19.3245      0.00000
     33      21.0757      0.00000
     34      21.5539      0.00000
     35      21.6039      0.00000
     36      21.6703      0.00000
     37      24.3272      0.00000
     38      24.7324      0.00000
     39      24.7647      0.00000
     40      27.1827      0.00000

 k-point   7 :       0.3333    0.3333    0.2500
  band No.  band energies     occupation 
      1     -12.4265      2.00000
      2     -12.4023      2.00000
      3     -12.4023      2.00000
      4      -7.5142      2.00000
      5      -7.3125      2.00000
      6      -5.3774      2.00000
      7      -2.6129      2.00000
      8      -2.6129      2.00000
      9      -2.4795      2.00000
     10      -1.3080      2.00000
     11      -1.1751      2.00000
     12      -1.1751      2.00000
     13      -0.2350      2.00000
     14      -0.1912      2.00000
     15      -0.1912      2.00000
     16       5.0287      1.93637
     17       5.2388      0.07470
     18      11.5011      0.00000
     19      11.5011      0.00000
     20      11.5633      0.00000
     21      14.7485      0.00000
     22      14.8632      0.00000
     23      14.8632      0.00000
     24      15.2389      0.00000
     25      15.3273      0.00000
     26      15.3273      0.00000
     27      15.4340      0.00000
     28      16.5981      0.00000
     29      16.5981      0.00000
     30      17.1862      0.00000
     31      18.7836      0.00000
     32      19.2143      0.00000
     33      22.0985      0.00000
     34      22.4766      0.00000
     35      22.7101      0.00000
     36      22.7101      0.00000
     37      22.7657      0.00000
     38      22.8478      0.00000
     39      22.8478      0.00000
     40      23.9641      0.00000

 k-point   8 :      -0.3333    0.3333    0.2500
  band No.  band energies     occupation 
      1     -13.7024      2.00000
      2     -11.7487      2.00000
      3      -9.9561      2.00000
      4      -9.9561      2.00000
      5      -6.1782      2.00000
      6      -6.1782      2.00000
      7      -4.4286      2.00000
      8      -2.8623      2.00000
      9      -2.8623      2.00000
     10      -1.7073      2.00000
     11      -0.6117      2.00000
     12      -0.1468      2.00000
     13       0.5449      2.00000
     14       1.0646      2.00000
     15       2.4090      2.00000
     16       2.4090      2.02658
     17       7.7150     -0.02682
     18       7.7150      0.00000
     19      10.0321      0.00000
     20      12.7368      0.00000
     21      13.3507      0.00000
     22      13.8065      0.00000
     23      14.5242      0.00000
     24      15.2614      0.00000
     25      15.2614      0.00000
     26      15.7425      0.00000
     27      15.9083      0.00000
     28      16.5948      0.00000
     29      16.5948      0.00000
     30      19.1795      0.00000
     31      19.2728      0.00000
     32      19.2728      0.00000
     33      21.2570      0.00000
     34      21.4015      0.00000
     35      21.7488      0.00000
     36      21.7488      0.00000
     37      24.4310      0.00000
     38      24.7784      0.00000
     39      24.7784      0.00000
     40      27.3535      0.00000

 k-point   9 :       0.0000    0.0000    0.5000
  band No.  band energies     occupation 
      1     -14.1398      2.00000
      2      -8.9843      2.00000
      3      -8.9843      2.00000
      4      -8.8244      2.00000
      5      -7.9846      2.00000
      6      -7.8939      2.00000
      7      -7.8939      2.00000
      8      -3.6076      2.00000
      9      -1.2218      2.00000
     10      -1.1473      2.00000
     11      -1.1473      2.00000
     12       1.8440      2.00000
     13       1.8440      2.00000
     14       2.0329      2.00000
     15       2.1162      2.00000
     16       2.2904      2.00000
     17       5.7300      0.00000
     18       5.8432      0.00000
     19       5.8432      0.00000
     20      12.6623      0.00000
     21      12.9553      0.00000
     22      12.9553      0.00000
     23      13.3645      0.00000
     24      13.8359      0.00000
     25      16.3306      0.00000
     26      16.9225      0.00000
     27      18.0667      0.00000
     28      18.6068      0.00000
     29      18.6915      0.00000
     30      18.6915      0.00000
     31      23.7062      0.00000
     32      23.7062      0.00000
     33      23.8495      0.00000
     34      24.8224      0.00000
     35      25.1189      0.00000
     36      25.1197      0.00000
     37      25.1610      0.00000
     38      25.1712      0.00000
     39      25.1712      0.00000
     40      25.2168      0.00000

 k-point  10 :       0.3333    0.0000    0.5000
  band No.  band energies     occupation 
      1     -13.4938      2.00000
      2     -11.5884      2.00000
      3      -9.7426      2.00000
      4      -9.7107      2.00000
      5      -6.1302      2.00000
      6      -6.1041      2.00000
      7      -4.3436      2.00000
      8      -2.8121      2.00000
      9      -2.8061      2.00000
     10      -2.7442      2.00000
     11      -0.5337      2.00000
     12      -0.5211      2.00000
     13      -0.0600      2.00000
     14       1.0651      2.00000
     15       1.5452      2.00000
     16       1.6210      2.00000
     17       6.7975     -0.03686
     18       6.8285      0.00000
     19       9.3045      0.00000
     20      13.2330      0.00000
     21      13.6611      0.00000
     22      14.0644      0.00000
     23      15.3678      0.00000
     24      15.6716      0.00000
     25      16.1199      0.00000
     26      16.1819      0.00000
     27      16.2411      0.00000
     28      17.3984      0.00000
     29      18.3447      0.00000
     30      19.3357      0.00000
     31      20.8002      0.00000
     32      21.1378      0.00000
     33      21.5498      0.00000
     34      22.7266      0.00000
     35      23.6307      0.00000
     36      23.6976      0.00000
     37      24.1527      0.00000
     38      26.0349      0.00000
     39      26.0736      0.00000
     40      26.2259      0.00000

 k-point  11 :       0.3333    0.3333    0.5000
  band No.  band energies     occupation 
      1     -12.2260      2.00000
      2     -12.2022      2.00000
      3     -12.2022      2.00000
      4      -7.3710      2.00000
      5      -7.1681      2.00000
      6      -5.2780      2.00000
      7      -2.5295      2.00000
      8      -2.5295      2.00000
      9      -2.3945      2.00000
     10      -1.2762      2.00000
     11      -1.2469      2.00000
     12      -1.2340      2.00000
     13      -1.2340      2.00000
     14      -1.1124      2.00000
     15      -1.1124      2.00000
     16       4.2206      2.00000
     17       4.4249      0.48768
     18      10.9067      0.00000
     19      10.9067      0.00000
     20      10.9643      0.00000
     21      13.9999      0.00000
     22      15.3325      0.00000
     23      15.5048      0.00000
     24      15.5048      0.00000
     25      16.7996      0.00000
     26      16.7996      0.00000
     27      17.4011      0.00000
     28      17.4062      0.00000
     29      17.4962      0.00000
     30      17.4962      0.00000
     31      19.9264      0.00000
     32      20.4934      0.00000
     33      22.6316      0.00000
     34      22.8873      0.00000
     35      23.1776      0.00000
     36      23.1776      0.00000
     37      23.2033      0.00000
     38      23.2033      0.00000
     39      23.2169      0.00000
     40      25.6796      0.00000

 k-point  12 :      -0.3333    0.3333    0.5000
  band No.  band energies     occupation 
      1     -13.4861      2.00000
      2     -11.5564      2.00000
      3      -9.7840      2.00000
      4      -9.7840      2.00000
      5      -6.0537      2.00000
      6      -6.0537      2.00000
      7      -4.3232      2.00000
      8      -2.7978      2.00000
      9      -2.7882      2.00000
     10      -2.7882      2.00000
     11      -0.5689      2.00000
     12      -0.4686      2.00000
     13      -0.0896      2.00000
     14       1.1014      2.00000
     15       1.4888      2.00000
     16       1.4888      2.00000
     17       6.9043     -0.03624
     18       6.9043      0.00000
     19       9.3045      0.00000
     20      12.9919      0.00000
     21      13.6729      0.00000
     22      14.0746      0.00000
     23      15.6633      0.00000
     24      15.6633      0.00000
     25      15.9778      0.00000
     26      16.1207      0.00000
     27      16.1207      0.00000
     28      17.4041      0.00000
     29      18.3162      0.00000
     30      19.5067      0.00000
     31      21.1364      0.00000
     32      21.1364      0.00000
     33      21.4598      0.00000
     34      22.9691      0.00000
     35      23.6537      0.00000
     36      23.6537      0.00000
     37      24.2280      0.00000
     38      25.7273      0.00000
     39      26.2073      0.00000
     40      26.2084      0.00000


--------------------------------------------------------------------------------------------------------


 soft charge-density along one line, spin component           1
         0         1         2         3         4         5         6         7         8         9
 total charge-density along one line
 
 pseudopotential strength for first ion, spin component:           1
  9.743   0.004  -0.000   0.000   0.000  -0.000  -0.000   0.000
  0.004  -0.002   0.000  -0.000  -0.000  -0.000  -0.000   0.000
 -0.000   0.000  -3.916  -0.000   0.000  -0.015  -0.000   0.000
  0.000  -0.000  -0.000  -3.909   0.000  -0.000  -0.012   0.000
  0.000  -0.000   0.000   0.000  -3.916   0.000   0.000  -0.015
 -0.000  -0.000  -0.015  -0.000   0.000  -0.763  -0.000  -0.000
 -0.000  -0.000  -0.000  -0.012   0.000  -0.000  -0.763   0.000
  0.000   0.000   0.000   0.000  -0.015  -0.000   0.000  -0.763
 total augmentation occupancy for first ion, spin component:           1
  1.470  -1.135   0.005  -0.000  -0.008   0.002   0.000  -0.003
 -1.135   1.080  -0.007   0.000   0.013  -0.002  -0.000   0.004
  0.005  -0.007   1.221  -0.000  -0.010   0.222   0.000  -0.002
 -0.000   0.000  -0.000   0.941   0.000   0.000   0.102   0.000
 -0.008   0.013  -0.010   0.000   1.232  -0.002   0.000   0.224
  0.002  -0.002   0.222   0.000  -0.002   0.046   0.000  -0.000
 -0.000   0.000  -0.000   0.102  -0.000   0.000   0.013  -0.000
 -0.003   0.004  -0.002  -0.000   0.224  -0.000   0.000   0.047


------------------------ aborting loop because EDIFF is reached ----------------------------------------


 


 total charge     
 
# of ion     s       p       d       tot
----------------------------------------
  1        0.866   1.792   0.000   2.658
  2        0.866   1.793   0.000   2.658
  3        0.866   1.793   0.000   2.658
  4        0.866   1.793   0.000   2.658
  5        0.866   1.793   0.000   2.658
  6        0.866   1.793   0.000   2.658
  7        0.866   1.792   0.000   2.658
  8        0.866   1.793   0.000   2.658
------------------------------------------------
tot        6.924  14.340   0.000  21.265
 
    CHARGE:  cpu time    0.02: real time    0.02
    FORLOC:  cpu time    0.00: real time    0.00
    FORNL :  cpu time    0.07: real time    0.07
    STRESS:  cpu time    0.29: real time    0.30
    FORHAR:  cpu time    0.00: real time    0.00
    MIXING:  cpu time    0.00: real time    0.00

  FORCE on cell =-STRESS in cart. coord.  units (eV):
  Direction    XX          YY          ZZ          XY          YZ          ZX
  --------------------------------------------------------------------------------------
  Alpha Z    77.44857    77.44857    77.44857
  Ewald     103.33548    94.07981 -1174.24280    -8.01564    -0.00000     0.00000
  Hartree   284.60857   282.81850  -237.74281    -1.55025    -0.00000     0.00000
  E(xc)    -117.14585  -117.18110  -121.28114    -0.03053    -0.00000     0.00000
  Local    -796.68605  -786.86191   935.30333     8.50796    -0.00000     0.00000
  n-local   -28.37244   -28.36794   -26.26557     0.31326    -0.09314    -0.06141
  augment    -3.13165    -3.12030    -2.86343     0.00983     0.00005    -0.00008
  Kinetic   474.52688   487.78734   554.14159    -2.63276     1.18507     0.77641
  Fock        0.00000     0.00000     0.00000     0.00000     0.00000     0.00000
  -------------------------------------------------------------------------------------
  Total       0.56221     0.62427     4.49775     0.05375     0.00000     0.00000
  in kB      13.37796    14.85470   107.02561     1.27889     0.00000     0.00000
  external pressure =       45.09 kB  Pullay stress =        0.00 kB


 VOLUME and BASIS-vectors are now :
 -----------------------------------------------------------------------------
  energy-cutoff  :      500.00
  volume of cell :       67.33
      direct lattice vectors                 reciprocal lattice vectors
     4.916532968  0.018666971  0.000000000     0.202954364  0.116150574  0.000000000
    -2.442100413  4.267175935  0.000000000    -0.000887834  0.233838922  0.000000000
     0.000000000  0.000000000  3.202405429     0.000000000  0.000000000  0.312265271

  length of vectors
     4.916568405  4.916568405  3.202405429     0.233840607  0.233840607  0.312265271


 FORCES acting on ions
    electron-ion (+dipol)            ewald-force                    non-local-force                 convergence-correction
 -----------------------------------------------------------------------------------------------
   -.297E+01 0.171E+01 0.339E-04   0.291E+01 -.168E+01 -.218E-16   0.415E-01 -.240E-01 -.379E-18   -.106E-02 0.611E-03 -.196E-08
   0.297E+01 -.171E+01 0.170E-04   -.291E+01 0.168E+01 0.582E-15   -.415E-01 0.240E-01 -.813E-19   0.106E-02 -.611E-03 -.296E-08
   -.297E+01 0.171E+01 0.339E-04   0.291E+01 -.168E+01 0.320E-15   0.415E-01 -.240E-01 -.379E-18   -.106E-02 0.611E-03 -.196E-08
   0.297E+01 -.171E+01 0.170E-04   -.291E+01 0.168E+01 0.816E-15   -.415E-01 0.240E-01 -.813E-19   0.106E-02 -.611E-03 -.296E-08
   -.297E+01 0.171E+01 0.339E-04   0.291E+01 -.168E+01 -.244E-15   0.415E-01 -.240E-01 -.813E-19   -.106E-02 0.611E-03 -.196E-08
   0.297E+01 -.171E+01 0.170E-04   -.291E+01 0.168E+01 0.498E-15   -.415E-01 0.240E-01 0.000E+00   0.106E-02 -.611E-03 -.296E-08
   -.297E+01 0.171E+01 0.339E-04   0.291E+01 -.168E+01 0.156E-15   0.415E-01 -.240E-01 -.813E-19   -.106E-02 0.611E-03 -.196E-08
   0.297E+01 -.171E+01 0.170E-04   -.291E+01 0.168E+01 0.709E-15   -.415E-01 0.240E-01 0.000E+00   0.106E-02 -.611E-03 -.296E-08
 -----------------------------------------------------------------------------------------------
   0.124E-03 -.731E-04 0.203E-03   -.142E-13 -.377E-14 0.282E-14   -.139E-16 0.226E-15 -.108E-17   -.175E-08 0.101E-08 -.197E-07
 
 
 POSITION                                       TOTAL-FORCE (eV/Angst)
 -----------------------------------------------------------------------------------
      4.91313      0.02063      0.23432        -0.022204      0.012819     -0.000000
      1.23520      0.71547      0.23432         0.022204     -0.012819     -0.000000
      2.45487      0.01130      0.23432        -0.022204      0.012819     -0.000000
      3.69347      0.72480      0.23432         0.022204     -0.012819     -0.000000
      3.69208      2.15422      0.23432        -0.022204      0.012819     -0.000000
      0.01415      2.84906      0.23432         0.022204     -0.012819     -0.000000
      1.23382      2.14488      0.23432        -0.022204      0.012819     -0.000000
      2.47242      2.85839      0.23432         0.022204     -0.012819     -0.000000
 -----------------------------------------------------------------------------------
    total drift:                                0.000124     -0.000073      0.000203


--------------------------------------------------------------------------------------------------------



  FREE ENERGIE OF THE ION-ELECTRON SYSTEM (eV)
  ---------------------------------------------------
  free  energy   TOTEN  =       -73.259916 eV

  energy  without entropy=      -73.259916  energy(sigma->0) =      -73.259916
 


--------------------------------------------------------------------------------------------------------


    POTLOK:  cpu time    0.01: real time    0.01


--------------------------------------------------------------------------------------------------------


 stress matrix after NEB project (eV)
      0.56221      0.05375      0.00000
      0.05375      0.62427      0.00000
      0.00000      0.00000      4.49775
  FORCES: max atom, RMS     0.025639    0.025639
  FORCE total and by dimension    0.072517    0.022204
  Stress total and by dimension    4.576172    4.497753
 writing wavefunctions
     LOOP+:  cpu time   16.50: real time   16.61
    4ORBIT:  cpu time    0.00: real time    0.00
 


 total charge     
 
# of ion     s       p       d       tot
----------------------------------------
  1        0.866   1.792   0.000   2.658
  2        0.866   1.793   0.000   2.658
  3        0.866   1.793   0.000   2.658
  4        0.866   1.793   0.000   2.658
  5        0.866   1.793   0.000   2.658
  6        0.866   1.793   0.000   2.658
  7        0.866   1.792   0.000   2.658
  8        0.866   1.793   0.000   2.658
------------------------------------------------
tot        6.924  14.340   0.000  21.265
 
 BZINTS: Fermi energy:  5.179165; 32.000000 electrons
         Band energy:-126.576914;  BLOECHL correction: -0.096665

 total amount of memory used by VASP on root node    33123. kBytes
========================================================================

   base      :      30000. kBytes
   nonl-proj :       1559. kBytes
   fftplans  :        153. kBytes
   grid      :        689. kBytes
   one-center:         24. kBytes
   wavefun   :        698. kBytes
 
  
  
 General timing and accounting informations for this job:
 ========================================================
  
                  Total CPU time used (sec):       17.359
                            User time (sec):       17.144
                          System time (sec):        0.215
                         Elapsed time (sec):       17.564
  
                   Maximum memory used (kb):       37308.
                   Average memory used (kb):           0.
  
                          Minor page faults:         9099
                          Major page faults:           35
                 Voluntary context switches:          662
