PROCAR lm decomposed
# of k-points:   73         # of bands:  24         # of ions:   8

 k-point    1 :    0.00000000 0.00000000 0.00000000     weight = 0.00390625

band   1 # energy  -15.64686955 # occ.  2.00000000
 
ion      s     py     pz     px    dxy    dyz    dz2    dxz    dx2    tot
  1  0.080  0.000  0.000  0.000  0.000  0.000  0.000  0.000  0.000  0.080
  2  0.080  0.000  0.000  0.000  0.000  0.000  0.000  0.000  0.000  0.080
  3  0.080  0.000  0.000  0.000  0.000  0.000  0.000  0.000  0.000  0.080
  4  0.080  0.000  0.000  0.000  0.000  0.000  0.000  0.000  0.000  0.080
  5  0.080  0.000  0.000  0.000  0.000  0.000  0.000  0.000  0.000  0.080
  6  0.080  0.000  0.000  0.000  0.000  0.000  0.000  0.000  0.000  0.080
  7  0.080  0.000  0.000  0.000  0.000  0.000  0.000  0.000  0.000  0.080
  8  0.080  0.000  0.000  0.000  0.000  0.000  0.000  0.000  0.000  0.080
tot  0.642  0.000  0.000  0.000  0.000  0.000  0.000  0.000  0.000  0.642
 
band   2 # energy  -10.29055723 # occ.  2.00000000
 
ion      s     py     pz     px    dxy    dyz    dz2    dxz    dx2    tot
  1  0.075  0.004  0.000  0.012  0.000  0.000  0.000  0.000  0.000  0.091
  2  0.070  0.004  0.000  0.012  0.000  0.000  0.000  0.000  0.000  0.087
  3  0.080  0.004  0.000  0.012  0.000  0.000  0.000  0.000  0.000  0.095
  4  0.075  0.004  0.000  0.012  0.000  0.000  0.000  0.000  0.000  0.091
  5  0.070  0.004  0.000  0.012  0.000  0.000  0.000  0.000  0.000  0.087
  6  0.075  0.004  0.000  0.012  0.000  0.000  0.000  0.000  0.000  0.091
  7  0.075  0.004  0.000  0.012  0.000  0.000  0.000  0.000  0.000  0.091
  8  0.080  0.004  0.000  0.012  0.000  0.000  0.000  0.000  0.000  0.095
tot  0.600  0.032  0.000  0.096  0.000  0.000  0.000  0.000  0.000  0.727
 
band   3 # energy  -10.29043647 # occ.  2.00000000
 
ion      s     py     pz     px    dxy    dyz    dz2    dxz    dx2    tot
  1  0.150  0.002  0.000  0.006  0.000  0.000  0.000  0.000  0.000  0.158
  2  0.000  0.018  0.000  0.006  0.000  0.000  0.000  0.000  0.000  0.024
  3  0.000  0.018  0.000  0.006  0.000  0.000  0.000  0.000  0.000  0.024
  4  0.150  0.002  0.000  0.006  0.000  0.000  0.000  0.000  0.000  0.158
  5  0.000  0.018  0.000  0.006  0.000  0.000  0.000  0.000  0.000  0.024
  6  0.150  0.002  0.000  0.006  0.000  0.000  0.000  0.000  0.000  0.158
  7  0.150  0.002  0.000  0.006  0.000  0.000  0.000  0.000  0.000  0.158
  8  0.000  0.018  0.000  0.006  0.000  0.000  0.000  0.000  0.000  0.024
tot  0.600  0.080  0.000  0.048  0.000  0.000  0.000  0.000  0.000  0.727
 
band   4 # energy  -10.29043642 # occ.  2.00000000
 
ion      s     py     pz     px    dxy    dyz    dz2    dxz    dx2    tot
  1  0.000  0.018  0.000  0.006  0.000  0.000  0.000  0.000  0.000  0.024
  2  0.154  0.002  0.000  0.006  0.000  0.000  0.000  0.000  0.000  0.162
  3  0.145  0.002  0.000  0.006  0.000  0.000  0.000  0.000  0.000  0.154
  4  0.000  0.018  0.000  0.006  0.000  0.000  0.000  0.000  0.000  0.024
  5  0.154  0.002  0.000  0.006  0.000  0.000  0.000  0.000  0.000  0.162
  6  0.000  0.018  0.000  0.006  0.000  0.000  0.000  0.000  0.000  0.024
  7  0.000  0.018  0.000  0.006  0.000  0.000  0.000  0.000  0.000  0.024
  8  0.145  0.002  0.000  0.006  0.000  0.000  0.000  0.000  0.000  0.154
tot  0.600  0.080  0.000  0.048  0.000  0.000  0.000  0.000  0.000  0.727
 
band   5 # energy   -9.29247406 # occ.  2.00000000
 
ion      s     py     pz     px    dxy    dyz    dz2    dxz    dx2    tot
  1  0.034  0.012  0.000  0.037  0.000  0.000  0.000  0.000  0.000  0.083
  2  0.035  0.012  0.000  0.037  0.000  0.000  0.000  0.000  0.000  0.084
  3  0.034  0.012  0.000  0.037  0.000  0.000  0.000  0.000  0.000  0.083
  4  0.034  0.013  0.000  0.037  0.000  0.000  0.000  0.000  0.000  0.083
  5  0.035  0.012  0.000  0.037  0.000  0.000  0.000  0.000  0.000  0.084
  6  0.034  0.012  0.000  0.037  0.000  0.000  0.000  0.000  0.000  0.083
  7  0.034  0.013  0.000  0.037  0.000  0.000  0.000  0.000  0.000  0.083
  8  0.034  0.012  0.000  0.037  0.000  0.000  0.000  0.000  0.000  0.083
tot  0.273  0.098  0.000  0.295  0.000  0.000  0.000  0.000  0.000  0.667
 
band   6 # energy   -9.29223395 # occ.  2.00000000
 
ion      s     py     pz     px    dxy    dyz    dz2    dxz    dx2    tot
  1  0.068  0.007  0.000  0.017  0.000  0.000  0.000  0.000  0.000  0.093
  2  0.000  0.056  0.000  0.017  0.000  0.000  0.000  0.000  0.000  0.074
  3  0.000  0.056  0.000  0.017  0.000  0.000  0.000  0.000  0.000  0.074
  4  0.068  0.007  0.000  0.017  0.000  0.000  0.000  0.000  0.000  0.093
  5  0.000  0.056  0.000  0.017  0.000  0.000  0.000  0.000  0.000  0.074
  6  0.068  0.007  0.000  0.017  0.000  0.000  0.000  0.000  0.000  0.093
  7  0.068  0.007  0.000  0.017  0.000  0.000  0.000  0.000  0.000  0.093
  8  0.000  0.056  0.000  0.017  0.000  0.000  0.000  0.000  0.000  0.074
tot  0.273  0.254  0.000  0.140  0.000  0.000  0.000  0.000  0.000  0.667
 
band   7 # energy   -9.29223394 # occ.  2.00000000
 
ion      s     py     pz     px    dxy    dyz    dz2    dxz    dx2    tot
  1  0.000  0.055  0.000  0.019  0.000  0.000  0.000  0.000  0.000  0.074
  2  0.068  0.005  0.000  0.020  0.000  0.000  0.000  0.000  0.000  0.093
  3  0.069  0.005  0.000  0.019  0.000  0.000  0.000  0.000  0.000  0.093
  4  0.000  0.054  0.000  0.020  0.000  0.000  0.000  0.000  0.000  0.074
  5  0.068  0.005  0.000  0.020  0.000  0.000  0.000  0.000  0.000  0.093
  6  0.000  0.055  0.000  0.019  0.000  0.000  0.000  0.000  0.000  0.074
  7  0.000  0.054  0.000  0.020  0.000  0.000  0.000  0.000  0.000  0.074
  8  0.069  0.005  0.000  0.019  0.000  0.000  0.000  0.000  0.000  0.093
tot  0.273  0.238  0.000  0.156  0.000  0.000  0.000  0.000  0.000  0.667
 
band   8 # energy   -3.29116791 # occ.  2.00000000
 
ion      s     py     pz     px    dxy    dyz    dz2    dxz    dx2    tot
  1  0.000  0.000  0.058  0.000  0.000  0.000  0.000  0.000  0.000  0.058
  2  0.000  0.000  0.058  0.000  0.000  0.000  0.000  0.000  0.000  0.058
  3  0.000  0.000  0.058  0.000  0.000  0.000  0.000  0.000  0.000  0.058
  4  0.000  0.000  0.058  0.000  0.000  0.000  0.000  0.000  0.000  0.058
  5  0.000  0.000  0.058  0.000  0.000  0.000  0.000  0.000  0.000  0.058
  6  0.000  0.000  0.058  0.000  0.000  0.000  0.000  0.000  0.000  0.058
  7  0.000  0.000  0.058  0.000  0.000  0.000  0.000  0.000  0.000  0.058
  8  0.000  0.000  0.058  0.000  0.000  0.000  0.000  0.000  0.000  0.058
tot  0.000  0.000  0.468  0.000  0.000  0.000  0.000  0.000  0.000  0.468
 
band   9 # energy   -2.34938300 # occ.  2.00000000
 
ion      s     py     pz     px    dxy    dyz    dz2    dxz    dx2    tot
  1  0.000  0.036  0.000  0.112  0.000  0.000  0.000  0.000  0.000  0.148
  2  0.000  0.036  0.000  0.013  0.000  0.000  0.000  0.000  0.000  0.049
  3  0.000  0.036  0.000  0.013  0.000  0.000  0.000  0.000  0.000  0.050
  4  0.000  0.036  0.000  0.112  0.000  0.000  0.000  0.000  0.000  0.148
  5  0.000  0.036  0.000  0.013  0.000  0.000  0.000  0.000  0.000  0.049
  6  0.000  0.036  0.000  0.112  0.000  0.000  0.000  0.000  0.000  0.148
  7  0.000  0.036  0.000  0.112  0.000  0.000  0.000  0.000  0.000  0.148
  8  0.000  0.036  0.000  0.013  0.000  0.000  0.000  0.000  0.000  0.050
tot  0.000  0.289  0.000  0.500  0.000  0.000  0.000  0.000  0.000  0.790
 
band  10 # energy   -2.34938300 # occ.  2.00000000
 
ion      s     py     pz     px    dxy    dyz    dz2    dxz    dx2    tot
  1  0.000  0.038  0.000  0.012  0.000  0.000  0.000  0.000  0.000  0.049
  2  0.000  0.038  0.000  0.110  0.000  0.000  0.000  0.000  0.000  0.148
  3  0.000  0.038  0.000  0.110  0.000  0.000  0.000  0.000  0.000  0.148
  4  0.000  0.038  0.000  0.012  0.000  0.000  0.000  0.000  0.000  0.049
  5  0.000  0.038  0.000  0.110  0.000  0.000  0.000  0.000  0.000  0.148
  6  0.000  0.038  0.000  0.012  0.000  0.000  0.000  0.000  0.000  0.049
  7  0.000  0.038  0.000  0.012  0.000  0.000  0.000  0.000  0.000  0.049
  8  0.000  0.038  0.000  0.110  0.000  0.000  0.000  0.000  0.000  0.148
tot  0.000  0.303  0.000  0.487  0.000  0.000  0.000  0.000  0.000  0.790
 
band  11 # energy   -2.34888871 # occ.  2.00000000
 
ion      s     py     pz     px    dxy    dyz    dz2    dxz    dx2    tot
  1  0.000  0.074  0.000  0.025  0.000  0.000  0.000  0.000  0.000  0.099
  2  0.000  0.074  0.000  0.025  0.000  0.000  0.000  0.000  0.000  0.099
  3  0.000  0.074  0.000  0.025  0.000  0.000  0.000  0.000  0.000  0.098
  4  0.000  0.074  0.000  0.024  0.000  0.000  0.000  0.000  0.000  0.099
  5  0.000  0.074  0.000  0.025  0.000  0.000  0.000  0.000  0.000  0.099
  6  0.000  0.074  0.000  0.025  0.000  0.000  0.000  0.000  0.000  0.099
  7  0.000  0.074  0.000  0.024  0.000  0.000  0.000  0.000  0.000  0.099
  8  0.000  0.074  0.000  0.025  0.000  0.000  0.000  0.000  0.000  0.098
tot  0.000  0.592  0.000  0.197  0.000  0.000  0.000  0.000  0.000  0.790
 
band  12 # energy    1.09797622 # occ.  2.00000000
 
ion      s     py     pz     px    dxy    dyz    dz2    dxz    dx2    tot
  1  0.000  0.026  0.000  0.078  0.000  0.000  0.000  0.000  0.000  0.104
  2  0.000  0.026  0.000  0.078  0.000  0.000  0.000  0.000  0.000  0.104
  3  0.000  0.026  0.000  0.078  0.000  0.000  0.000  0.000  0.000  0.104
  4  0.000  0.026  0.000  0.078  0.000  0.000  0.000  0.000  0.000  0.104
  5  0.000  0.026  0.000  0.078  0.000  0.000  0.000  0.000  0.000  0.104
  6  0.000  0.026  0.000  0.078  0.000  0.000  0.000  0.000  0.000  0.104
  7  0.000  0.026  0.000  0.078  0.000  0.000  0.000  0.000  0.000  0.104
  8  0.000  0.026  0.000  0.078  0.000  0.000  0.000  0.000  0.000  0.104
tot  0.000  0.207  0.000  0.622  0.000  0.000  0.000  0.000  0.000  0.829
 
band  13 # energy    1.09871888 # occ.  2.00000000
 
ion      s     py     pz     px    dxy    dyz    dz2    dxz    dx2    tot
  1  0.000  0.078  0.000  0.026  0.000  0.000  0.000  0.000  0.000  0.104
  2  0.000  0.078  0.000  0.026  0.000  0.000  0.000  0.000  0.000  0.104
  3  0.000  0.078  0.000  0.026  0.000  0.000  0.000  0.000  0.000  0.104
  4  0.000  0.078  0.000  0.026  0.000  0.000  0.000  0.000  0.000  0.104
  5  0.000  0.078  0.000  0.026  0.000  0.000  0.000  0.000  0.000  0.104
  6  0.000  0.078  0.000  0.026  0.000  0.000  0.000  0.000  0.000  0.104
  7  0.000  0.078  0.000  0.026  0.000  0.000  0.000  0.000  0.000  0.104
  8  0.000  0.078  0.000  0.026  0.000  0.000  0.000  0.000  0.000  0.104
tot  0.000  0.622  0.000  0.207  0.000  0.000  0.000  0.000  0.000  0.829
 
band  14 # energy    1.90298241 # occ.  2.00000000
 
ion      s     py     pz     px    dxy    dyz    dz2    dxz    dx2    tot
  1  0.000  0.000  0.000  0.000  0.000  0.000  0.000  0.000  0.000  0.000
  2  0.000  0.000  0.118  0.000  0.000  0.000  0.000  0.000  0.000  0.118
  3  0.000  0.000  0.148  0.000  0.000  0.000  0.000  0.000  0.000  0.148
  4  0.000  0.000  0.000  0.000  0.000  0.000  0.000  0.000  0.000  0.000
  5  0.000  0.000  0.118  0.000  0.000  0.000  0.000  0.000  0.000  0.118
  6  0.000  0.000  0.000  0.000  0.000  0.000  0.000  0.000  0.000  0.000
  7  0.000  0.000  0.000  0.000  0.000  0.000  0.000  0.000  0.000  0.000
  8  0.000  0.000  0.148  0.000  0.000  0.000  0.000  0.000  0.000  0.148
tot  0.000  0.000  0.535  0.000  0.000  0.000  0.000  0.000  0.000  0.535
 
band  15 # energy    1.90298258 # occ.  2.00000000
 
ion      s     py     pz     px    dxy    dyz    dz2    dxz    dx2    tot
  1  0.000  0.000  0.134  0.000  0.000  0.000  0.000  0.000  0.000  0.134
  2  0.000  0.000  0.000  0.000  0.000  0.000  0.000  0.000  0.000  0.000
  3  0.000  0.000  0.000  0.000  0.000  0.000  0.000  0.000  0.000  0.000
  4  0.000  0.000  0.134  0.000  0.000  0.000  0.000  0.000  0.000  0.134
  5  0.000  0.000  0.000  0.000  0.000  0.000  0.000  0.000  0.000  0.000
  6  0.000  0.000  0.134  0.000  0.000  0.000  0.000  0.000  0.000  0.134
  7  0.000  0.000  0.134  0.000  0.000  0.000  0.000  0.000  0.000  0.134
  8  0.000  0.000  0.000  0.000  0.000  0.000  0.000  0.000  0.000  0.000
tot  0.000  0.000  0.535  0.000  0.000  0.000  0.000  0.000  0.000  0.535
 
band  16 # energy    1.90300965 # occ.  2.00000000
 
ion      s     py     pz     px    dxy    dyz    dz2    dxz    dx2    tot
  1  0.000  0.000  0.066  0.000  0.000  0.000  0.000  0.000  0.000  0.066
  2  0.000  0.000  0.082  0.000  0.000  0.000  0.000  0.000  0.000  0.082
  3  0.000  0.000  0.052  0.000  0.000  0.000  0.000  0.000  0.000  0.052
  4  0.000  0.000  0.066  0.000  0.000  0.000  0.000  0.000  0.000  0.066
  5  0.000  0.000  0.082  0.000  0.000  0.000  0.000  0.000  0.000  0.082
  6  0.000  0.000  0.066  0.000  0.000  0.000  0.000  0.000  0.000  0.066
  7  0.000  0.000  0.066  0.000  0.000  0.000  0.000  0.000  0.000  0.066
  8  0.000  0.000  0.052  0.000  0.000  0.000  0.000  0.000  0.000  0.052
tot  0.000  0.000  0.535  0.000  0.000  0.000  0.000  0.000  0.000  0.535
 
band  17 # energy    6.10400864 # occ.  0.00000000
 
ion      s     py     pz     px    dxy    dyz    dz2    dxz    dx2    tot
  1  0.000  0.000  0.061  0.000  0.000  0.000  0.000  0.000  0.000  0.061
  2  0.000  0.000  0.061  0.000  0.000  0.000  0.000  0.000  0.000  0.061
  3  0.000  0.000  0.061  0.000  0.000  0.000  0.000  0.000  0.000  0.061
  4  0.000  0.000  0.061  0.000  0.000  0.000  0.000  0.000  0.000  0.061
  5  0.000  0.000  0.061  0.000  0.000  0.000  0.000  0.000  0.000  0.061
  6  0.000  0.000  0.061  0.000  0.000  0.000  0.000  0.000  0.000  0.061
  7  0.000  0.000  0.061  0.000  0.000  0.000  0.000  0.000  0.000  0.061
  8  0.000  0.000  0.061  0.000  0.000  0.000  0.000  0.000  0.000  0.061
tot  0.000  0.000  0.486  0.000  0.000  0.000  0.000  0.000  0.000  0.486
 
band  18 # energy    6.10435511 # occ.  0.00000000
 
ion      s     py     pz     px    dxy    dyz    dz2    dxz    dx2    tot
  1  0.000  0.000  0.014  0.000  0.000  0.000  0.000  0.000  0.000  0.014
  2  0.000  0.000  0.108  0.000  0.000  0.000  0.000  0.000  0.000  0.108
  3  0.000  0.000  0.108  0.000  0.000  0.000  0.000  0.000  0.000  0.108
  4  0.000  0.000  0.014  0.000  0.000  0.000  0.000  0.000  0.000  0.014
  5  0.000  0.000  0.108  0.000  0.000  0.000  0.000  0.000  0.000  0.108
  6  0.000  0.000  0.014  0.000  0.000  0.000  0.000  0.000  0.000  0.014
  7  0.000  0.000  0.014  0.000  0.000  0.000  0.000  0.000  0.000  0.014
  8  0.000  0.000  0.108  0.000  0.000  0.000  0.000  0.000  0.000  0.108
tot  0.000  0.000  0.486  0.000  0.000  0.000  0.000  0.000  0.000  0.486
 
band  19 # energy    6.10435511 # occ.  0.00000000
 
ion      s     py     pz     px    dxy    dyz    dz2    dxz    dx2    tot
  1  0.000  0.000  0.108  0.000  0.000  0.000  0.000  0.000  0.000  0.108
  2  0.000  0.000  0.014  0.000  0.000  0.000  0.000  0.000  0.000  0.014
  3  0.000  0.000  0.014  0.000  0.000  0.000  0.000  0.000  0.000  0.014
  4  0.000  0.000  0.108  0.000  0.000  0.000  0.000  0.000  0.000  0.108
  5  0.000  0.000  0.014  0.000  0.000  0.000  0.000  0.000  0.000  0.014
  6  0.000  0.000  0.108  0.000  0.000  0.000  0.000  0.000  0.000  0.108
  7  0.000  0.000  0.108  0.000  0.000  0.000  0.000  0.000  0.000  0.108
  8  0.000  0.000  0.014  0.000  0.000  0.000  0.000  0.000  0.000  0.014
tot  0.000  0.000  0.486  0.000  0.000  0.000  0.000  0.000  0.000  0.486
 
band  20 # energy    6.98190165 # occ.  0.00000000
 
ion      s     py     pz     px    dxy    dyz    dz2    dxz    dx2    tot
  1  0.008  0.000  0.000  0.000  0.000  0.000  0.000  0.000  0.000  0.008
  2  0.008  0.000  0.000  0.000  0.000  0.000  0.000  0.000  0.000  0.008
  3  0.008  0.000  0.000  0.000  0.000  0.000  0.000  0.000  0.000  0.008
  4  0.008  0.000  0.000  0.000  0.000  0.000  0.000  0.000  0.000  0.008
  5  0.008  0.000  0.000  0.000  0.000  0.000  0.000  0.000  0.000  0.008
  6  0.008  0.000  0.000  0.000  0.000  0.000  0.000  0.000  0.000  0.008
  7  0.008  0.000  0.000  0.000  0.000  0.000  0.000  0.000  0.000  0.008
  8  0.008  0.000  0.000  0.000  0.000  0.000  0.000  0.000  0.000  0.008
tot  0.062  0.000  0.000  0.000  0.000  0.000  0.000  0.000  0.000  0.062
 
band  21 # energy   11.50869569 # occ.  0.00000000
 
ion      s     py     pz     px    dxy    dyz    dz2    dxz    dx2    tot
  1  0.012  0.012  0.000  0.001  0.000  0.000  0.000  0.000  0.000  0.025
  2  0.079  0.005  0.000  0.001  0.000  0.000  0.000  0.000  0.000  0.085
  3  0.079  0.005  0.000  0.001  0.000  0.000  0.000  0.000  0.000  0.085
  4  0.012  0.012  0.000  0.001  0.000  0.000  0.000  0.000  0.000  0.025
  5  0.079  0.005  0.000  0.001  0.000  0.000  0.000  0.000  0.000  0.085
  6  0.012  0.012  0.000  0.001  0.000  0.000  0.000  0.000  0.000  0.025
  7  0.012  0.012  0.000  0.001  0.000  0.000  0.000  0.000  0.000  0.025
  8  0.079  0.005  0.000  0.001  0.000  0.000  0.000  0.000  0.000  0.085
tot  0.365  0.067  0.000  0.009  0.000  0.000  0.000  0.000  0.000  0.442
 
band  22 # energy   11.50869835 # occ.  0.00000000
 
ion      s     py     pz     px    dxy    dyz    dz2    dxz    dx2    tot
  1  0.079  0.000  0.000  0.006  0.000  0.000  0.000  0.000  0.000  0.085
  2  0.012  0.007  0.000  0.006  0.000  0.000  0.000  0.000  0.000  0.025
  3  0.012  0.007  0.000  0.006  0.000  0.000  0.000  0.000  0.000  0.025
  4  0.079  0.000  0.000  0.006  0.000  0.000  0.000  0.000  0.000  0.085
  5  0.012  0.007  0.000  0.006  0.000  0.000  0.000  0.000  0.000  0.025
  6  0.079  0.000  0.000  0.006  0.000  0.000  0.000  0.000  0.000  0.085
  7  0.079  0.000  0.000  0.006  0.000  0.000  0.000  0.000  0.000  0.085
  8  0.012  0.007  0.000  0.006  0.000  0.000  0.000  0.000  0.000  0.025
tot  0.365  0.029  0.000  0.048  0.000  0.000  0.000  0.000  0.000  0.442
 
band  23 # energy   11.50935073 # occ.  0.00000000
 
ion      s     py     pz     px    dxy    dyz    dz2    dxz    dx2    tot
  1  0.046  0.002  0.000  0.007  0.000  0.000  0.000  0.000  0.000  0.055
  2  0.046  0.002  0.000  0.007  0.000  0.000  0.000  0.000  0.000  0.055
  3  0.046  0.002  0.000  0.007  0.000  0.000  0.000  0.000  0.000  0.055
  4  0.046  0.002  0.000  0.007  0.000  0.000  0.000  0.000  0.000  0.055
  5  0.046  0.002  0.000  0.007  0.000  0.000  0.000  0.000  0.000  0.055
  6  0.046  0.002  0.000  0.007  0.000  0.000  0.000  0.000  0.000  0.055
  7  0.046  0.002  0.000  0.007  0.000  0.000  0.000  0.000  0.000  0.055
  8  0.046  0.002  0.000  0.007  0.000  0.000  0.000  0.000  0.000  0.055
tot  0.365  0.019  0.000  0.057  0.000  0.000  0.000  0.000  0.000  0.442
 
band  24 # energy   12.50314186 # occ.  0.00000000
 
ion      s     py     pz     px    dxy    dyz    dz2    dxz    dx2    tot
  1  0.000  0.055  0.000  0.010  0.000  0.000  0.000  0.000  0.000  0.065
  2  0.000  0.055  0.000  0.010  0.000  0.000  0.000  0.000  0.000  0.065
  3  0.000  0.055  0.000  0.010  0.000  0.000  0.000  0.000  0.000  0.065
  4  0.000  0.055  0.000  0.010  0.000  0.000  0.000  0.000  0.000  0.065
  5  0.000  0.055  0.000  0.010  0.000  0.000  0.000  0.000  0.000  0.065
  6  0.000  0.055  0.000  0.010  0.000  0.000  0.000  0.000  0.000  0.065
  7  0.000  0.055  0.000  0.010  0.000  0.000  0.000  0.000  0.000  0.065
  8  0.000  0.055  0.000  0.010  0.000  0.000  0.000  0.000  0.000  0.065
tot  0.000  0.441  0.000  0.080  0.000  0.000  0.000  0.000  0.000  0.521
 

 k-point    2 :    0.06250000 0.00000000 0.00000000     weight = 0.01562500

band   1 # energy  -15.62340127 # occ.  2.00000000
 
ion      s     py     pz     px    dxy    dyz    dz2    dxz    dx2    tot
  1  0.080  0.000  0.000  0.000  0.000  0.000  0.000  0.000  0.000  0.080
  2  0.080  0.000  0.000  0.000  0.000  0.000  0.000  0.000  0.000  0.080
  3  0.080  0.000  0.000  0.000  0.000  0.000  0.000  0.000  0.000  0.080
  4  0.080  0.000  0.000  0.000  0.000  0.000  0.000  0.000  0.000  0.080
  5  0.080  0.000  0.000  0.000  0.000  0.000  0.000  0.000  0.000  0.080
  6  0.080  0.000  0.000  0.000  0.000  0.000  0.000  0.000  0.000  0.080
  7  0.080  0.000  0.000  0.000  0.000  0.000  0.000  0.000  0.000  0.080
  8  0.080  0.000  0.000  0.000  0.000  0.000  0.000  0.000  0.000  0.080
tot  0.641  0.000  0.000  0.001  0.000  0.000  0.000  0.000  0.000  0.642
 
band   2 # energy  -10.63372163 # occ.  2.00000000
 
ion      s     py     pz     px    dxy    dyz    dz2    dxz    dx2    tot
  1  0.069  0.005  0.000  0.015  0.000  0.000  0.000  0.000  0.000  0.089
  2  0.069  0.005  0.000  0.015  0.000  0.000  0.000  0.000  0.000  0.089
  3  0.069  0.005  0.000  0.015  0.000  0.000  0.000  0.000  0.000  0.089
  4  0.069  0.005  0.000  0.015  0.000  0.000  0.000  0.000  0.000  0.089
  5  0.069  0.005  0.000  0.015  0.000  0.000  0.000  0.000  0.000  0.089
  6  0.069  0.005  0.000  0.015  0.000  0.000  0.000  0.000  0.000  0.089
  7  0.069  0.005  0.000  0.015  0.000  0.000  0.000  0.000  0.000  0.089
  8  0.069  0.005  0.000  0.015  0.000  0.000  0.000  0.000  0.000  0.089
tot  0.550  0.040  0.000  0.120  0.000  0.000  0.000  0.000  0.000  0.709
 
band   3 # energy  -10.38160604 # occ.  2.00000000
 
ion      s     py     pz     px    dxy    dyz    dz2    dxz    dx2    tot
  1  0.070  0.006  0.000  0.013  0.000  0.000  0.000  0.000  0.000  0.088
  2  0.070  0.006  0.000  0.013  0.000  0.000  0.000  0.000  0.000  0.088
  3  0.074  0.005  0.000  0.013  0.000  0.000  0.000  0.000  0.000  0.092
  4  0.074  0.005  0.000  0.013  0.000  0.000  0.000  0.000  0.000  0.092
  5  0.070  0.006  0.000  0.013  0.000  0.000  0.000  0.000  0.000  0.088
  6  0.070  0.006  0.000  0.013  0.000  0.000  0.000  0.000  0.000  0.088
  7  0.074  0.005  0.000  0.013  0.000  0.000  0.000  0.000  0.000  0.092
  8  0.074  0.005  0.000  0.013  0.000  0.000  0.000  0.000  0.000  0.092
tot  0.576  0.042  0.000  0.102  0.000  0.000  0.000  0.000  0.000  0.720
 
band   4 # energy  -10.38148688 # occ.  2.00000000
 
ion      s     py     pz     px    dxy    dyz    dz2    dxz    dx2    tot
  1  0.074  0.018  0.000  0.000  0.000  0.000  0.000  0.000  0.000  0.092
  2  0.074  0.018  0.000  0.000  0.000  0.000  0.000  0.000  0.000  0.092
  3  0.070  0.018  0.000  0.000  0.000  0.000  0.000  0.000  0.000  0.088
  4  0.070  0.018  0.000  0.000  0.000  0.000  0.000  0.000  0.000  0.088
  5  0.074  0.018  0.000  0.000  0.000  0.000  0.000  0.000  0.000  0.092
  6  0.074  0.018  0.000  0.000  0.000  0.000  0.000  0.000  0.000  0.092
  7  0.070  0.018  0.000  0.000  0.000  0.000  0.000  0.000  0.000  0.088
  8  0.070  0.018  0.000  0.000  0.000  0.000  0.000  0.000  0.000  0.088
tot  0.576  0.143  0.000  0.001  0.000  0.000  0.000  0.000  0.000  0.720
 
band   5 # energy   -9.16257862 # occ.  2.00000000
 
ion      s     py     pz     px    dxy    dyz    dz2    dxz    dx2    tot
  1  0.037  0.011  0.000  0.036  0.000  0.000  0.000  0.000  0.000  0.084
  2  0.037  0.011  0.000  0.036  0.000  0.000  0.000  0.000  0.000  0.084
  3  0.037  0.011  0.000  0.036  0.000  0.000  0.000  0.000  0.000  0.084
  4  0.037  0.011  0.000  0.036  0.000  0.000  0.000  0.000  0.000  0.084
  5  0.037  0.011  0.000  0.036  0.000  0.000  0.000  0.000  0.000  0.084
  6  0.037  0.011  0.000  0.036  0.000  0.000  0.000  0.000  0.000  0.084
  7  0.037  0.011  0.000  0.036  0.000  0.000  0.000  0.000  0.000  0.084
  8  0.037  0.011  0.000  0.036  0.000  0.000  0.000  0.000  0.000  0.084
tot  0.296  0.089  0.000  0.290  0.000  0.000  0.000  0.000  0.000  0.675
 
band   6 # energy   -9.16233716 # occ.  2.00000000
 
ion      s     py     pz     px    dxy    dyz    dz2    dxz    dx2    tot
  1  0.037  0.047  0.000  0.000  0.000  0.000  0.000  0.000  0.000  0.084
  2  0.037  0.047  0.000  0.000  0.000  0.000  0.000  0.000  0.000  0.084
  3  0.037  0.047  0.000  0.000  0.000  0.000  0.000  0.000  0.000  0.084
  4  0.037  0.047  0.000  0.000  0.000  0.000  0.000  0.000  0.000  0.084
  5  0.037  0.047  0.000  0.000  0.000  0.000  0.000  0.000  0.000  0.084
  6  0.037  0.047  0.000  0.000  0.000  0.000  0.000  0.000  0.000  0.084
  7  0.037  0.047  0.000  0.000  0.000  0.000  0.000  0.000  0.000  0.084
  8  0.037  0.047  0.000  0.000  0.000  0.000  0.000  0.000  0.000  0.084
tot  0.296  0.379  0.000  0.000  0.000  0.000  0.000  0.000  0.000  0.675
 
band   7 # energy   -8.91411995 # occ.  2.00000000
 
ion      s     py     pz     px    dxy    dyz    dz2    dxz    dx2    tot
  1  0.040  0.011  0.000  0.034  0.000  0.000  0.000  0.000  0.000  0.086
  2  0.040  0.011  0.000  0.034  0.000  0.000  0.000  0.000  0.000  0.086
  3  0.040  0.011  0.000  0.034  0.000  0.000  0.000  0.000  0.000  0.086
  4  0.040  0.011  0.000  0.034  0.000  0.000  0.000  0.000  0.000  0.086
  5  0.040  0.011  0.000  0.034  0.000  0.000  0.000  0.000  0.000  0.086
  6  0.040  0.011  0.000  0.034  0.000  0.000  0.000  0.000  0.000  0.086
  7  0.040  0.011  0.000  0.034  0.000  0.000  0.000  0.000  0.000  0.086
  8  0.040  0.011  0.000  0.034  0.000  0.000  0.000  0.000  0.000  0.086
tot  0.322  0.091  0.000  0.273  0.000  0.000  0.000  0.000  0.000  0.685
 
band   8 # energy   -3.26363726 # occ.  2.00000000
 
ion      s     py     pz     px    dxy    dyz    dz2    dxz    dx2    tot
  1  0.000  0.000  0.058  0.000  0.000  0.000  0.000  0.000  0.000  0.058
  2  0.000  0.000  0.058  0.000  0.000  0.000  0.000  0.000  0.000  0.058
  3  0.000  0.000  0.058  0.000  0.000  0.000  0.000  0.000  0.000  0.058
  4  0.000  0.000  0.058  0.000  0.000  0.000  0.000  0.000  0.000  0.058
  5  0.000  0.000  0.058  0.000  0.000  0.000  0.000  0.000  0.000  0.058
  6  0.000  0.000  0.058  0.000  0.000  0.000  0.000  0.000  0.000  0.058
  7  0.000  0.000  0.058  0.000  0.000  0.000  0.000  0.000  0.000  0.058
  8  0.000  0.000  0.058  0.000  0.000  0.000  0.000  0.000  0.000  0.058
tot  0.000  0.000  0.468  0.000  0.000  0.000  0.000  0.000  0.000  0.468
 
band   9 # energy   -2.42308940 # occ.  2.00000000
 
ion      s     py     pz     px    dxy    dyz    dz2    dxz    dx2    tot
  1  0.001  0.000  0.000  0.098  0.000  0.000  0.000  0.000  0.000  0.098
  2  0.001  0.000  0.000  0.098  0.000  0.000  0.000  0.000  0.000  0.098
  3  0.001  0.000  0.000  0.098  0.000  0.000  0.000  0.000  0.000  0.099
  4  0.001  0.000  0.000  0.098  0.000  0.000  0.000  0.000  0.000  0.099
  5  0.001  0.000  0.000  0.098  0.000  0.000  0.000  0.000  0.000  0.098
  6  0.001  0.000  0.000  0.098  0.000  0.000  0.000  0.000  0.000  0.098
  7  0.001  0.000  0.000  0.098  0.000  0.000  0.000  0.000  0.000  0.099
  8  0.001  0.000  0.000  0.098  0.000  0.000  0.000  0.000  0.000  0.099
tot  0.005  0.001  0.000  0.782  0.000  0.000  0.000  0.000  0.000  0.787
 
band  10 # energy   -2.42259860 # occ.  2.00000000
 
ion      s     py     pz     px    dxy    dyz    dz2    dxz    dx2    tot
  1  0.001  0.073  0.000  0.025  0.000  0.000  0.000  0.000  0.000  0.099
  2  0.001  0.073  0.000  0.025  0.000  0.000  0.000  0.000  0.000  0.099
  3  0.001  0.073  0.000  0.024  0.000  0.000  0.000  0.000  0.000  0.098
  4  0.001  0.073  0.000  0.024  0.000  0.000  0.000  0.000  0.000  0.098
  5  0.001  0.073  0.000  0.025  0.000  0.000  0.000  0.000  0.000  0.099
  6  0.001  0.073  0.000  0.025  0.000  0.000  0.000  0.000  0.000  0.099
  7  0.001  0.073  0.000  0.024  0.000  0.000  0.000  0.000  0.000  0.098
  8  0.001  0.073  0.000  0.024  0.000  0.000  0.000  0.000  0.000  0.098
tot  0.005  0.587  0.000  0.195  0.000  0.000  0.000  0.000  0.000  0.787
 
band  11 # energy   -2.32604989 # occ.  2.00000000
 
ion      s     py     pz     px    dxy    dyz    dz2    dxz    dx2    tot
  1  0.000  0.074  0.000  0.025  0.000  0.000  0.000  0.000  0.000  0.099
  2  0.000  0.074  0.000  0.025  0.000  0.000  0.000  0.000  0.000  0.099
  3  0.000  0.074  0.000  0.025  0.000  0.000  0.000  0.000  0.000  0.099
  4  0.000  0.074  0.000  0.025  0.000  0.000  0.000  0.000  0.000  0.099
  5  0.000  0.074  0.000  0.025  0.000  0.000  0.000  0.000  0.000  0.099
  6  0.000  0.074  0.000  0.025  0.000  0.000  0.000  0.000  0.000  0.099
  7  0.000  0.074  0.000  0.025  0.000  0.000  0.000  0.000  0.000  0.099
  8  0.000  0.074  0.000  0.025  0.000  0.000  0.000  0.000  0.000  0.099
tot  0.000  0.592  0.000  0.197  0.000  0.000  0.000  0.000  0.000  0.790
 
band  12 # energy    1.00112445 # occ.  2.00000000
 
ion      s     py     pz     px    dxy    dyz    dz2    dxz    dx2    tot
  1  0.001  0.025  0.000  0.078  0.000  0.000  0.000  0.000  0.000  0.103
  2  0.001  0.025  0.000  0.078  0.000  0.000  0.000  0.000  0.000  0.103
  3  0.001  0.025  0.000  0.078  0.000  0.000  0.000  0.000  0.000  0.103
  4  0.001  0.025  0.000  0.078  0.000  0.000  0.000  0.000  0.000  0.103
  5  0.001  0.025  0.000  0.078  0.000  0.000  0.000  0.000  0.000  0.103
  6  0.001  0.025  0.000  0.078  0.000  0.000  0.000  0.000  0.000  0.103
  7  0.001  0.025  0.000  0.078  0.000  0.000  0.000  0.000  0.000  0.103
  8  0.001  0.025  0.000  0.078  0.000  0.000  0.000  0.000  0.000  0.103
tot  0.006  0.200  0.000  0.621  0.000  0.000  0.000  0.000  0.000  0.827
 
band  13 # energy    1.04622093 # occ.  2.00000000
 
ion      s     py     pz     px    dxy    dyz    dz2    dxz    dx2    tot
  1  0.000  0.078  0.000  0.025  0.000  0.000  0.000  0.000  0.000  0.103
  2  0.000  0.078  0.000  0.025  0.000  0.000  0.000  0.000  0.000  0.103
  3  0.000  0.078  0.000  0.025  0.000  0.000  0.000  0.000  0.000  0.103
  4  0.000  0.078  0.000  0.025  0.000  0.000  0.000  0.000  0.000  0.103
  5  0.000  0.078  0.000  0.025  0.000  0.000  0.000  0.000  0.000  0.103
  6  0.000  0.078  0.000  0.025  0.000  0.000  0.000  0.000  0.000  0.103
  7  0.000  0.078  0.000  0.025  0.000  0.000  0.000  0.000  0.000  0.103
  8  0.000  0.078  0.000  0.025  0.000  0.000  0.000  0.000  0.000  0.103
tot  0.000  0.626  0.000  0.202  0.000  0.000  0.000  0.000  0.000  0.828
 
band  14 # energy    1.76290595 # occ.  2.00000000
 
ion      s     py     pz     px    dxy    dyz    dz2    dxz    dx2    tot
  1  0.000  0.000  0.066  0.000  0.000  0.000  0.000  0.000  0.000  0.066
  2  0.000  0.000  0.066  0.000  0.000  0.000  0.000  0.000  0.000  0.066