<?xml version="1.0" encoding="ISO-8859-1"?>
<modeling>
 <generator>
  <i name="program" type="string">vasp </i>
  <i name="version" type="string">5.2.11  </i>
  <i name="subversion" type="string">25Nov10 complex  parallel </i>
  <i name="platform" type="string">LinuxIFC </i>
  <i name="date" type="string">2018 12 14 </i>
  <i name="time" type="string">15:23:13 </i>
 </generator>
 <incar>
  <i type="string" name="SYSTEM"> NAME</i>
  <i type="int" name="ISTART">     0</i>
  <i type="string" name="PREC">medium</i>
  <i type="int" name="ICHARG">     2</i>
  <i type="int" name="NELM">   100</i>
  <i type="int" name="NELMDL">    -5</i>
  <i type="int" name="NELMIN">     5</i>
  <i type="int" name="IBRION">     1</i>
  <i name="EDIFF">      0.00010000</i>
  <i type="int" name="NSW">     0</i>
  <i type="int" name="ISIF">     2</i>
  <i name="ENCUT">    500.00000000</i>
  <i type="int" name="NEDOS">  1000</i>
  <i type="int" name="ISMEAR">    -5</i>
  <i type="logical" name="LORBIT"> F  </i>
  <i type="int" name="NELM">   100</i>
  <i type="logical" name="LPEAD"> F  </i>
  <i type="logical" name="LCALCPOL"> F  </i>
  <i type="logical" name="LCALCEPS"> F  </i>
  <v name="EFIELD_PEAD">      0.00000000      0.00000000      0.00000000</v>
  <i type="logical" name="LEFG"> F  </i>
  <i type="logical" name="LRHFATM"> F  </i>
  <i type="string" name="METAGGA">--</i>
  <i type="int" name="LMAXTAU">     0</i>
 </incar>
 <kpoints>
  <generation param="Gamma">
   <v type="int" name="divisions">       3        3        4 </v>
   <v name="usershift">      0.00000000       0.00000000       0.00000000 </v>
   <v name="genvec1">      0.33333333       0.00000000       0.00000000 </v>
   <v name="genvec2">     -0.00000000       0.33333333       0.00000000 </v>
   <v name="genvec3">      0.00000000       0.00000000       0.25000000 </v>
   <v name="shift">      0.00000000       0.00000000       0.00000000 </v>
  </generation>
  <varray name="kpointlist" >
   <v>       0.00000000       0.00000000       0.00000000 </v>
   <v>       0.33333333       0.00000000       0.00000000 </v>
   <v>       0.33333333       0.33333333       0.00000000 </v>
   <v>      -0.33333333       0.33333333       0.00000000 </v>
   <v>       0.00000000       0.00000000       0.25000000 </v>
   <v>       0.33333333       0.00000000       0.25000000 </v>
   <v>       0.33333333       0.33333333       0.25000000 </v>
   <v>      -0.33333333       0.33333333       0.25000000 </v>
   <v>       0.00000000       0.00000000       0.50000000 </v>
   <v>       0.33333333       0.00000000       0.50000000 </v>
   <v>       0.33333333       0.33333333       0.50000000 </v>
   <v>      -0.33333333       0.33333333       0.50000000 </v>
  </varray>
  <varray name="weights" >
   <v>       0.02777778 </v>
   <v>       0.11111111 </v>
   <v>       0.05555556 </v>
   <v>       0.05555556 </v>
   <v>       0.05555556 </v>
   <v>       0.22222222 </v>
   <v>       0.11111111 </v>
   <v>       0.11111111 </v>
   <v>       0.02777778 </v>
   <v>       0.11111111 </v>
   <v>       0.05555556 </v>
   <v>       0.05555556 </v>
  </varray>
  <varray name="tetrahedronlist"  type="int" >
   <v type="int" >        8        2        2        3        6 </v>
   <v type="int" >        4        1        2        2        6 </v>
   <v type="int" >        4        1        2        5        6 </v>
   <v type="int" >        4        2        3        6        7 </v>
   <v type="int" >        8        2        6        6        7 </v>
   <v type="int" >        4        2        5        6        6 </v>
   <v type="int" >        4        2        3        4        7 </v>
   <v type="int" >        4        2        2        3        7 </v>
   <v type="int" >        4        2        2        6        7 </v>
   <v type="int" >        4        2        4        7        8 </v>
   <v type="int" >        4        2        6        7        8 </v>
   <v type="int" >        4        1        2        4        8 </v>
   <v type="int" >        4        1        2        6        8 </v>
   <v type="int" >        4        1        5        6        8 </v>
   <v type="int" >        4        2        3        4        6 </v>
   <v type="int" >        4        2        3        6        6 </v>
   <v type="int" >        4        3        4        6        8 </v>
   <v type="int" >        4        3        6        7        8 </v>
   <v type="int" >        4        3        6        6        7 </v>
   <v type="int" >        4        3        4        4        8 </v>
   <v type="int" >        4        3        4        7        8 </v>
   <v type="int" >        4        4        7        8        8 </v>
   <v type="int" >        4        1        2        4        5 </v>
   <v type="int" >        4        2        4        5        6 </v>
   <v type="int" >        4        4        5        6        8 </v>
   <v type="int" >        8        6        6        7       10 </v>
   <v type="int" >        4        5        6        6       10 </v>
   <v type="int" >        4        5        6        9       10 </v>
   <v type="int" >        4        6        7       10       11 </v>
   <v type="int" >        8        6       10       10       11 </v>
   <v type="int" >        4        6        9       10       10 </v>
   <v type="int" >        4        6        7        8       11 </v>
   <v type="int" >        4        6        6        7       11 </v>
   <v type="int" >        4        6        6       10       11 </v>
   <v type="int" >        4        6        8       11       12 </v>
   <v type="int" >        4        6       10       11       12 </v>
   <v type="int" >        4        5        6        8       12 </v>
   <v type="int" >        4        5        6       10       12 </v>
   <v type="int" >        4        5        9       10       12 </v>
   <v type="int" >        4        6        7        8       10 </v>
   <v type="int" >        4        6        7       10       10 </v>
   <v type="int" >        4        7        8       10       12 </v>
   <v type="int" >        4        7       10       11       12 </v>
   <v type="int" >        4        7       10       10       11 </v>
   <v type="int" >        4        7        8        8       12 </v>
   <v type="int" >        4        7        8       11       12 </v>
   <v type="int" >        4        8       11       12       12 </v>
   <v type="int" >        4        5        6        8        9 </v>
   <v type="int" >        4        6        8        9       10 </v>
   <v type="int" >        4        8        9       10       12 </v>
  </varray>
  <i name="volumeweight">      0.00462963 </i>
 </kpoints>
 <parameters>
  <separator name="general" >
   <i type="string" name="SYSTEM">NAME</i>
   <i type="logical" name="LCOMPAT"> F  </i>
  </separator>
  <separator name="electronic" >
   <i type="string" name="PREC">medium</i>
   <i name="ENMAX">    500.00000000</i>
   <i name="ENAUG">    644.87300000</i>
   <i name="EDIFF">      0.00010000</i>
   <i type="int" name="IALGO">    38</i>
   <i type="int" name="IWAVPR">    10</i>
   <i type="int" name="NBANDS">    40</i>
   <i name="NELECT">     32.00000000</i>
   <i type="int" name="TURBO">     0</i>
   <i type="int" name="IRESTART">     0</i>
   <i type="int" name="NREBOOT">     0</i>
   <i type="int" name="NMIN">     0</i>
   <i name="EREF">      0.00000000</i>
   <separator name="electronic smearing" >
    <i type="int" name="ISMEAR">    -5</i>
    <i name="SIGMA">      0.20000000</i>
    <i name="KSPACING">      0.50000000</i>
    <i type="logical" name="KGAMMA"> T  </i>
   </separator>
   <separator name="electronic projectors" >
    <i type="logical" name="LREAL"> F  </i>
    <v name="ROPT">      0.00000000</v>
    <i type="int" name="LMAXPAW">  -100</i>
    <i type="int" name="LMAXMIX">     2</i>
   </separator>
   <separator name="electronic startup" >
    <i type="int" name="ISTART">     0</i>
    <i type="int" name="ICHARG">     2</i>
    <i type="int" name="INIWAV">     1</i>
   </separator>
   <separator name="electronic spin" >
    <i type="int" name="ISPIN">     1</i>
    <i type="logical" name="LNONCOLLINEAR"> F  </i>
    <v name="MAGMOM">      1.00000000      1.00000000      1.00000000      1.00000000      1.00000000      1.00000000      1.00000000      1.00000000</v>
    <i name="NUPDOWN">     -1.00000000</i>
    <i type="logical" name="LSORBIT"> F  </i>
    <v name="SAXIS">      0.00000000      0.00000000      1.00000000</v>
    <i type="logical" name="LSPIRAL"> F  </i>
    <v name="QSPIRAL">      0.00000000      0.00000000      0.00000000</v>
    <i type="logical" name="LZEROZ"> F  </i>
   </separator>
   <separator name="electronic exchange-correlation" >
    <i type="logical" name="LASPH"> F  </i>
    <i type="logical" name="LMETAGGA"> F  </i>
   </separator>
   <separator name="electronic convergence" >
    <i type="int" name="NELM">   100</i>
    <i type="int" name="NELMDL">    -5</i>
    <i type="int" name="NELMIN">     5</i>
    <i name="ENINI">    500.00000000</i>
    <separator name="electronic convergence detail" >
     <i type="logical" name="LDIAG"> T  </i>
     <i type="logical" name="LSUBROT"> T  </i>
     <i name="WEIMIN">      0.00000000</i>
     <i name="EBREAK">      0.00000119</i>
     <i name="DEPER">      0.30000000</i>
     <i type="int" name="NRMM">     4</i>
     <i name="TIME">      0.40000000</i>
    </separator>
   </separator>
   <separator name="electronic mixer" >
    <i name="AMIX">      0.40000000</i>
    <i name="BMIX">      1.00000000</i>
    <i name="AMIN">      0.10000000</i>
    <i name="AMIX_MAG">      1.60000000</i>
    <i name="BMIX_MAG">      1.00000000</i>
    <separator name="electronic mixer details" >
     <i type="int" name="IMIX">     4</i>
     <i type="int" name="MAXMIX">   -45</i>
     <i name="WC">    100.00000000</i>
     <i type="int" name="INIMIX">     1</i>
     <i type="int" name="MIXPRE">     1</i>
     <i type="int" name="MREMOVE">     5</i>
    </separator>
   </separator>
   <separator name="electronic dipolcorrection" >
    <i type="logical" name="LDIPOL"> F  </i>
    <i type="logical" name="LMONO"> F  </i>
    <i type="int" name="IDIPOL">     0</i>
    <i name="EPSILON">      1.00000000</i>
    <v name="DIPOL">   -100.00000000   -100.00000000   -100.00000000</v>
    <i name="EFIELD">      0.00000000</i>
   </separator>
  </separator>
  <separator name="grids" >
   <i type="int" name="NGX">    28</i>
   <i type="int" name="NGY">    28</i>
   <i type="int" name="NGZ">    18</i>
   <i type="int" name="NGXF">    40</i>
   <i type="int" name="NGYF">    40</i>
   <i type="int" name="NGZF">    28</i>
   <i type="logical" name="ADDGRID"> F  </i>
  </separator>
  <separator name="ionic" >
   <i type="int" name="NSW">     0</i>
   <i type="int" name="IBRION">    -1</i>
   <i type="int" name="ISIF">     2</i>
   <i name="PSTRESS">      0.00000000</i>
   <i name="EDIFFG">      0.00100000</i>
   <i type="int" name="NFREE">     0</i>
   <i name="POTIM">      0.50000000</i>
   <i name="SMASS">     -3.00000000</i>
  </separator>
  <separator name="ionic md" >
   <i name="TEBEG">      0.00010000</i>
   <i name="TEEND">      0.00010000</i>
   <i type="int" name="NBLOCK">     1</i>
   <i type="int" name="KBLOCK">     1</i>
   <i type="int" name="NPACO">   256</i>
   <i name="APACO">     16.00000000</i>
  </separator>
  <separator name="symmetry" >
   <i type="int" name="ISYM">     2</i>
   <i name="SYMPREC">      0.00001000</i>
  </separator>
  <separator name="dos" >
   <i type="logical" name="LORBIT"> F  </i>
   <v name="RWIGS">     -1.00000000</v>
   <i type="int" name="NEDOS">  1000</i>
   <i name="EMIN">     10.00000000</i>
   <i name="EMAX">    -10.00000000</i>
   <i name="EFERMI">      0.00000000</i>
  </separator>
  <separator name="writing" >
   <i type="int" name="NWRITE">     2</i>
   <i type="logical" name="LWAVE"> T  </i>
   <i type="logical" name="LCHARG"> T  </i>
   <i type="logical" name="LPARD"> F  </i>
   <i type="logical" name="LVTOT"> F  </i>
   <i type="logical" name="LVHAR"> F  </i>
   <i type="logical" name="LELF"> F  </i>
   <i type="logical" name="LOPTICS"> F  </i>
   <v name="STM">      0.00000000      0.00000000      0.00000000      0.00000000      0.00000000</v>
  </separator>
  <separator name="performance" >
   <i type="int" name="NPAR">    20</i>
   <i type="int" name="NSIM">     4</i>
   <i type="int" name="NBLK">    -1</i>
   <i type="logical" name="LPLANE"> T  </i>
   <i type="logical" name="LSCALAPACK"> F  </i>
   <i type="logical" name="LSCAAWARE"> F  </i>
   <i type="logical" name="LSCALU"> F  </i>
   <i type="logical" name="LASYNC"> F  </i>
   <i type="logical" name="LORBITALREAL"> F  </i>
  </separator>
  <separator name="miscellaneous" >
   <i type="int" name="IDIOT">     3</i>
   <i type="logical" name="LMUSIC"> F  </i>
   <v name="POMASS">     12.01100000</v>
   <v name="DARWINR">      0.00000000</v>
   <v name="DARWINV">      1.00000000</v>
   <i type="logical" name="LCORR"> T  </i>
  </separator>
  <i type="logical" name="GGA_COMPAT"> T  </i>
  <i type="logical" name="LBERRY"> F  </i>
  <i type="int" name="ICORELEVEL">     0</i>
  <i type="logical" name="LDAU"> F  </i>
  <i type="int" name="I_CONSTRAINED_M">     0</i>
  <separator name="electronic exchange-correlation" >
   <i type="string" name="GGA">--</i>
   <i type="int" name="VOSKOWN">     0</i>
   <i type="logical" name="LHFCALC"> F  </i>
   <i type="string" name="PRECFOCK"></i>
   <i type="logical" name="LHFONE"> F  </i>
   <i type="logical" name="LRHFCALC"> F  </i>
   <i type="logical" name="LTHOMAS"> F  </i>
   <i type="logical" name="LMODELHF"> F  </i>
   <i name="ENCUT4O">     -1.00000000</i>
   <i type="int" name="EXXOEP">     0</i>
   <i type="int" name="FOURORBIT">     0</i>
   <i name="AEXX">      0.00000000</i>
   <i name="HFALPHA">      0.00000000</i>
   <i name="ALDAX">      1.00000000</i>
   <i name="AGGAX">      1.00000000</i>
   <i name="ALDAC">      1.00000000</i>
   <i name="AGGAC">      1.00000000</i>
   <i type="int" name="NKREDX">     1</i>
   <i type="int" name="NKREDY">     1</i>
   <i type="int" name="NKREDZ">     1</i>
   <i type="logical" name="SHIFTRED"> F  </i>
   <i type="logical" name="ODDONLY"> F  </i>
   <i type="logical" name="EVENONLY"> F  </i>
   <i type="int" name="LMAXFOCK">     0</i>
   <i type="int" name="NMAXFOCKAE">     0</i>
   <i type="logical" name="LFOCKAEDFT"> F  </i>
   <i name="HFSCREEN">      0.00000000</i>
   <i name="HFSCREENC">      0.00000000</i>
  </separator>
  <separator name="model GW" >
   <i type="int" name="MODEL_GW">     0</i>
   <i name="MODEL_EPS0">      5.04986458</i>
   <i name="MODEL_ALPHA">      1.00000000</i>
  </separator>
  <separator name="linear response parameters" >
   <i type="logical" name="LEPSILON"> F  </i>
   <i type="logical" name="LRPA"> F  </i>
   <i type="logical" name="LNABLA"> F  </i>
   <i type="logical" name="LVEL"> F  </i>
   <i type="int" name="KINTER">     0</i>
   <i name="CSHIFT">      0.10000000</i>
   <i name="OMEGAMAX">     -1.00000000</i>
  </separator>
  <separator name="orbital magnetization" >
   <i type="logical" name="ORBITALMAG"> F  </i>
   <i type="logical" name="LMAGBLOCH"> F  </i>
   <i type="logical" name="LCHIMAG"> F  </i>
   <i type="logical" name="LGAUGE"> T  </i>
   <i type="int" name="MAGATOM">     0</i>
   <v name="MAGDIPOL">      0.00000000      0.00000000      0.00000000</v>
   <v name="AVECCONST">      0.00000000      0.00000000      0.00000000</v>
  </separator>
  <separator name="response functions" >
   <i type="logical" name="LRPA"> T  </i>
   <i type="logical" name="LTCTE"> F  </i>
   <i type="logical" name="LTETE"> F  </i>
   <i type="logical" name="L2ORDER"> F  </i>
   <i type="logical" name="LUSEW"> F  </i>
   <i name="ENCUTGW">     -2.00000000</i>
   <i name="ENCUTGWSOFT">     -2.00000000</i>
   <i name="ENCUTLF">     -1.00000000</i>
   <i type="int" name="LMAXMP2">    -1</i>
   <i name="SCISSOR">      0.00000000</i>
   <i type="int" name="NOMEGA">     0</i>
   <i type="int" name="NOMEGAR">     0</i>
   <i type="int" name="NBANDSGW">    -1</i>
   <i type="int" name="NBANDSO">    -1</i>
   <i type="int" name="NBANDSV">    -1</i>
   <i type="int" name="NELM">   100</i>
   <i type="int" name="DIM">     3</i>
   <i type="int" name="ANTIRES">     0</i>
   <i name="OMEGAMAX">    -30.00000000</i>
   <i name="OMEGATL">   -200.00000000</i>
   <i type="int" name="OMEGAGRID">     0</i>
   <i name="CSHIFT">     -0.10000000</i>
   <i type="logical" name="SELFENERGY"> F  </i>
   <i type="logical" name="LSPECTRAL"> F  </i>
   <i type="logical" name="ODDONLYGW"> F  </i>
   <i type="logical" name="EVENONLYGW"> F  </i>
   <i type="int" name="NKREDLFX">     1</i>
   <i type="int" name="NKREDLFY">     1</i>
   <i type="int" name="NKREDLFZ">     1</i>
   <i type="int" name="MAXMEM">  1800</i>
   <i type="int" name="TELESCOPE">     0</i>
  </separator>
 </parameters>
 <atominfo>
  <atoms>       8 </atoms>
  <types>       1 </types>
  <array name="atoms" >
   <dimension dim="1">ion</dimension>
   <field type="string">element</field>
   <field type="int">atomtype</field>
   <set>
    <rc><c>C </c><c>   1</c></rc>
    <rc><c>C </c><c>   1</c></rc>
    <rc><c>C </c><c>   1</c></rc>
    <rc><c>C </c><c>   1</c></rc>
    <rc><c>C </c><c>   1</c></rc>
    <rc><c>C </c><c>   1</c></rc>
    <rc><c>C </c><c>   1</c></rc>
    <rc><c>C </c><c>   1</c></rc>
   </set>
  </array>
  <array name="atomtypes" >
   <dimension dim="1">type</dimension>
   <field type="int">atomspertype</field>
   <field type="string">element</field>
   <field>mass</field>
   <field>valence</field>
   <field type="string">pseudopotential</field>
   <set>
    <rc><c>   8</c><c>C </c><c>     12.01100000</c><c>      4.00000000</c><c> PAW_PBE C 08Apr2002                    </c></rc>
   </set>
  </array>
 </atominfo>
 <structure name="initialpos" >
  <crystal>
   <varray name="basis" >
    <v>       4.91653297       0.01866697       0.00000000 </v>
    <v>      -2.44210041       4.26717593       0.00000000 </v>
    <v>       0.00000000       0.00000000       3.20240543 </v>
   </varray>
   <i name="volume">     67.33152776 </i>
   <varray name="rec_basis" >
    <v>       0.20295436       0.11615057       0.00000000 </v>
    <v>      -0.00088783       0.23383892       0.00000000 </v>
    <v>       0.00000000       0.00000000       0.31226527 </v>
   </varray>
  </crystal>
  <varray name="positions" >
   <v>       0.99953813       0.00046187       0.07317000 </v>
   <v>       0.33379187       0.16620813       0.07317000 </v>
   <v>       0.49953813       0.00046187       0.07317000 </v>
   <v>       0.83379185       0.16620813       0.07317000 </v>
   <v>       0.99953813       0.50046187       0.07317000 </v>
   <v>       0.33379187       0.66620815       0.07317000 </v>
   <v>       0.49953813       0.50046187       0.07317000 </v>
   <v>       0.83379185       0.66620815       0.07317000 </v>
  </varray>
 </structure>
 <calculation>
  <scstep>
   <time name="dav">    1.50    2.23</time>
   <time name="total">    1.52    2.25</time>
   <energy>
    <i name="alphaZ">     77.44856934 </i>
    <i name="ewald">   -976.82658119 </i>
    <i name="hartreedc">   -262.23397508 </i>
    <i name="XCdc">    111.01589515 </i>
    <i name="pawpsdc">    302.65154477 </i>
    <i name="pawaedc">   -311.85538214 </i>
    <i name="eentropy">      0.00000000 </i>
    <i name="bandstr">    -79.46421576 </i>
    <i name="atom">   1177.18737338 </i>
    <i name="e_fr_energy">     37.92322847 </i>
    <i name="e_wo_entrp">     37.92322847 </i>
    <i name="e_0_energy">     37.92322847 </i>
   </energy>
  </scstep>
  <scstep>
   <time name="dav">    1.52    1.52</time>
   <time name="total">    1.53    1.53</time>
   <energy>
    <i name="e_fr_energy">    -74.69061663 </i>
    <i name="e_wo_entrp">    -74.69061663 </i>
    <i name="e_0_energy">    -74.69061663 </i>
   </energy>
  </scstep>
  <scstep>
   <time name="dav">    1.38    1.38</time>
   <time name="total">    1.39    1.39</time>
   <energy>
    <i name="e_fr_energy">    -78.00483021 </i>
    <i name="e_wo_entrp">    -78.00483021 </i>
    <i name="e_0_energy">    -78.00483021 </i>
   </energy>
  </scstep>
  <scstep>
   <time name="dav">    1.29    1.29</time>
   <time name="total">    1.29    1.30</time>
   <energy>
    <i name="e_fr_energy">    -78.01995153 </i>
    <i name="e_wo_entrp">    -78.01995153 </i>
    <i name="e_0_energy">    -78.01995153 </i>
   </energy>
  </scstep>
  <scstep>
   <time name="dav">    1.37    1.37</time>
   <time name="total">    1.40    1.41</time>
   <energy>
    <i name="e_fr_energy">    -78.02005576 </i>
    <i name="e_wo_entrp">    -78.02005576 </i>
    <i name="e_0_energy">    -78.02005576 </i>
   </energy>
  </scstep>
  <scstep>
   <time name="dav">    1.40    1.40</time>
   <time name="total">    1.45    1.45</time>
   <energy>
    <i name="e_fr_energy">    -74.37374622 </i>
    <i name="e_wo_entrp">    -74.37374622 </i>
    <i name="e_0_energy">    -74.37374622 </i>
   </energy>
  </scstep>
  <scstep>
   <time name="dav">    1.43    1.44</time>
   <time name="total">    1.49    1.49</time>
   <energy>
    <i name="e_fr_energy">    -73.24059142 </i>
    <i name="e_wo_entrp">    -73.24059142 </i>
    <i name="e_0_energy">    -73.24059142 </i>
   </energy>
  </scstep>
  <scstep>
   <time name="dav">    1.18    1.18</time>
   <time name="total">    1.22    1.23</time>
   <energy>
    <i name="e_fr_energy">    -73.26010049 </i>
    <i name="e_wo_entrp">    -73.26010049 </i>
    <i name="e_0_energy">    -73.26010049 </i>
   </energy>
  </scstep>
  <scstep>
   <time name="dav">    1.46    1.47</time>
   <time name="total">    1.50    1.51</time>
   <energy>
    <i name="e_fr_energy">    -73.25973456 </i>
    <i name="e_wo_entrp">    -73.25973456 </i>
    <i name="e_0_energy">    -73.25973456 </i>
   </energy>
  </scstep>
  <scstep>
   <time name="dav">    1.23    1.24</time>
   <time name="total">    1.29    1.29</time>
   <energy>
    <i name="e_fr_energy">    -73.25998879 </i>
    <i name="e_wo_entrp">    -73.25998879 </i>
    <i name="e_0_energy">    -73.25998879 </i>
   </energy>
  </scstep>
  <scstep>
   <time name="dav">    1.44    1.44</time>
   <time name="total">    1.45    1.45</time>
   <energy>
    <i name="alphaZ">     77.44856934 </i>
    <i name="ewald">   -976.82658119 </i>
    <i name="hartreedc">   -329.65524596 </i>
    <i name="XCdc">    115.53315738 </i>
    <i name="pawpsdc">    558.89724440 </i>
    <i name="pawaedc">   -569.26751909 </i>
    <i name="eentropy">      0.00000000 </i>
    <i name="bandstr">   -126.57691418 </i>
    <i name="atom">   1177.18737338 </i>
    <i name="e_fr_energy">    -73.25991592 </i>
    <i name="e_wo_entrp">    -73.25991592 </i>
    <i name="e_0_energy">    -73.25991592 </i>
   </energy>
  </scstep>
  <v type="logical" name="LVDW"> F  </v>
  <structure>
   <crystal>
    <varray name="basis" >
     <v>       4.91653297       0.01866697       0.00000000 </v>
     <v>      -2.44210041       4.26717593       0.00000000 </v>
     <v>       0.00000000       0.00000000       3.20240543 </v>
    </varray>
    <i name="volume">     67.33152776 </i>
    <varray name="rec_basis" >
     <v>       0.20295436       0.11615057       0.00000000 </v>
     <v>      -0.00088783       0.23383892       0.00000000 </v>
     <v>       0.00000000       0.00000000       0.31226527 </v>
    </varray>
   </crystal>
   <varray name="positions" >
    <v>       0.99953813       0.00046187       0.07317000 </v>
    <v>       0.33379187       0.16620813       0.07317000 </v>
    <v>       0.49953813       0.00046187       0.07317000 </v>
    <v>       0.83379185       0.16620813       0.07317000 </v>
    <v>       0.99953813       0.50046187       0.07317000 </v>
    <v>       0.33379187       0.66620815       0.07317000 </v>
    <v>       0.49953813       0.50046187       0.07317000 </v>
    <v>       0.83379185       0.66620815       0.07317000 </v>
   </varray>
  </structure>
  <varray name="forces" >
   <v>      -0.02220379       0.01281936      -0.00000000 </v>
   <v>       0.02220379      -0.01281936      -0.00000000 </v>
   <v>      -0.02220379       0.01281936      -0.00000000 </v>
   <v>       0.02220379      -0.01281936      -0.00000000 </v>
   <v>      -0.02220379       0.01281936      -0.00000000 </v>
   <v>       0.02220379      -0.01281936       0.00000000 </v>
   <v>      -0.02220379       0.01281936      -0.00000000 </v>
   <v>       0.02220379      -0.01281936       0.00000000 </v>
  </varray>
  <varray name="stress" >
   <v>      13.37796398       1.27888955       0.00000000 </v>
   <v>       1.27888955      14.85469843       0.00000000 </v>
   <v>       0.00000000       0.00000000     107.02561418 </v>
  </varray>
  <energy>
   <i name="e_fr_energy">    -73.25991592 </i>
   <i name="e_wo_entrp">    -73.25991592 </i>
   <i name="e_0_energy">      0.00000000 </i>
  </energy>
  <time name="totalsc">   16.30   17.06</time>
  <eigenvalues>
   <array>
    <dimension dim="1">band</dimension>
    <dimension dim="2">kpoint</dimension>
    <dimension dim="3">spin</dimension>
    <field>eigene</field>
    <field>occ</field>
    <set>
     <set comment="spin 1">
      <set comment="kpoint 1">
       <r>  -14.5698    1.0000 </r>
       <r>   -9.3127    1.0000 </r>
       <r>   -9.3127    1.0000 </r>
       <r>   -9.1532    1.0000 </r>
       <r>   -8.2490    1.0000 </r>
       <r>   -8.1633    1.0000 </r>
       <r>   -8.1633    1.0000 </r>
       <r>   -1.3103    1.0000 </r>
       <r>   -1.2333    1.0000 </r>
       <r>   -1.2333    1.0000 </r>
       <r>   -1.1122    1.0000 </r>
       <r>    2.0583    1.0000 </r>
       <r>    2.2302    1.0000 </r>
       <r>    3.7196    1.0000 </r>
       <r>    3.7196    1.0000 </r>
       <r>    3.9198    1.0000 </r>
       <r>    7.9251    0.0000 </r>
       <r>    8.1043    0.0000 </r>
       <r>    8.1043    0.0000 </r>
       <r>    9.8746    0.0000 </r>
       <r>   12.1077    0.0000 </r>
       <r>   12.4003    0.0000 </r>
       <r>   12.4003    0.0000 </r>
       <r>   13.2112    0.0000 </r>
       <r>   13.6782    0.0000 </r>
       <r>   16.5843    0.0000 </r>
       <r>   16.5843    0.0000 </r>
       <r>   16.7357    0.0000 </r>
       <r>   16.9031    0.0000 </r>
       <r>   16.9031    0.0000 </r>
       <r>   16.9113    0.0000 </r>
       <r>   16.9428    0.0000 </r>
       <r>   17.4712    0.0000 </r>
       <r>   25.1249    0.0000 </r>
       <r>   25.1498    0.0000 </r>
       <r>   25.1498    0.0000 </r>
       <r>   25.2121    0.0000 </r>
       <r>   25.2458    0.0000 </r>
       <r>   25.2458    0.0000 </r>
       <r>   27.2288    0.0000 </r>
      </set>
      <set comment="kpoint 2">
       <r>  -13.9086    1.0000 </r>
       <r>  -11.9598    1.0000 </r>
       <r>  -10.0742    1.0000 </r>
       <r>  -10.0411    1.0000 </r>
       <r>   -6.3737    1.0000 </r>
       <r>   -6.3453    1.0000 </r>
       <r>   -4.5532    1.0000 </r>
       <r>   -2.9550    1.0000 </r>
       <r>   -2.8904    1.0000 </r>
       <r>   -0.6038    1.0000 </r>
       <r>   -0.3724    1.0000 </r>
       <r>   -0.1775    1.0000 </r>
       <r>    0.9939    1.0000 </r>
       <r>    1.7080    1.0000 </r>
       <r>    3.5612    1.0000 </r>
       <r>    3.6486    1.0147 </r>
       <r>    8.5440    0.0000 </r>
       <r>    8.6206    0.0000 </r>
       <r>   10.6465    0.0000 </r>
       <r>   10.9856    0.0000 </r>
       <r>   12.5630    0.0000 </r>
       <r>   13.2343    0.0000 </r>
       <r>   13.4176    0.0000 </r>
       <r>   14.6359    0.0000 </r>
       <r>   14.9099    0.0000 </r>
       <r>   15.0362    0.0000 </r>
       <r>   15.3727    0.0000 </r>
       <r>   15.3894    0.0000 </r>
       <r>   16.0966    0.0000 </r>
       <r>   18.2729    0.0000 </r>
       <r>   18.4624    0.0000 </r>
       <r>   18.6228    0.0000 </r>
       <r>   20.0721    0.0000 </r>
       <r>   21.4713    0.0000 </r>
       <r>   22.3522    0.0000 </r>
       <r>   22.3864    0.0000 </r>
       <r>   23.4541    0.0000 </r>
       <r>   23.6307    0.0000 </r>
       <r>   26.4643    0.0000 </r>
       <r>   26.5225    0.0000 </r>
      </set>
      <set comment="kpoint 3">
       <r>  -12.6115    1.0000 </r>
       <r>  -12.5869    1.0000 </r>
       <r>  -12.5869    1.0000 </r>
       <r>   -7.6493    1.0000 </r>
       <r>   -7.4486    1.0000 </r>
       <r>   -5.4736    1.0000 </r>
       <r>   -2.6938    1.0000 </r>
       <r>   -2.6938    1.0000 </r>
       <r>   -2.5619    1.0000 </r>
       <r>   -1.3666    1.0000 </r>
       <r>   -1.2339    1.0000 </r>
       <r>   -1.2339    1.0000 </r>
       <r>    1.0402    1.0000 </r>
       <r>    1.0846    1.0000 </r>
       <r>    1.0846    1.0000 </r>
       <r>    5.9775    0.7557 </r>
       <r>    6.1958    0.0000 </r>
       <r>   12.1956    0.0000 </r>
       <r>   12.1990    0.0000 </r>
       <r>   12.1990    0.0000 </r>
       <r>   12.2439    0.0000 </r>
       <r>   12.2439    0.0000 </r>
       <r>   12.2642    0.0000 </r>
       <r>   14.9545    0.0000 </r>
       <r>   15.0813    0.0000 </r>
       <r>   15.0813    0.0000 </r>
       <r>   16.3290    0.0000 </r>
       <r>   16.3290    0.0000 </r>
       <r>   16.8921    0.0000 </r>
       <r>   17.2587    0.0000 </r>
       <r>   17.5781    0.0000 </r>
       <r>   18.2114    0.0000 </r>
       <r>   20.2376    0.0000 </r>
       <r>   22.0094    0.0000 </r>
       <r>   22.1811    0.0000 </r>
       <r>   22.1811    0.0000 </r>
       <r>   23.1482    0.0000 </r>
       <r>   23.5692    0.0000 </r>
       <r>   25.3505    0.0000 </r>
       <r>   25.4793    0.0000 </r>
      </set>
      <set comment="kpoint 4">
       <r>  -13.9005    1.0000 </r>
       <r>  -11.9265    1.0000 </r>
       <r>  -10.1166    1.0000 </r>
       <r>  -10.1166    1.0000 </r>
       <r>   -6.2968    1.0000 </r>
       <r>   -6.2968    1.0000 </r>
       <r>   -4.5295    1.0000 </r>
       <r>   -2.9346    1.0000 </r>
       <r>   -2.9346    1.0000 </r>
       <r>   -0.6539    1.0000 </r>
       <r>   -0.3571    1.0000 </r>
       <r>   -0.2037    1.0000 </r>
       <r>    1.0282    1.0000 </r>
       <r>    1.7800    1.0000 </r>
       <r>    3.5059    1.0000 </r>
       <r>    3.5059    1.0146 </r>
       <r>    8.6920    0.0000 </r>
       <r>    8.6920    0.0000 </r>
       <r>   10.6620    0.0000 </r>
       <r>   10.9275    0.0000 </r>
       <r>   12.3927    0.0000 </r>
       <r>   13.1995    0.0000 </r>
       <r>   13.4056    0.0000 </r>
       <r>   14.8177    0.0000 </r>
       <r>   14.8177    0.0000 </r>
       <r>   15.0207    0.0000 </r>
       <r>   15.4054    0.0000 </r>
       <r>   15.4054    0.0000 </r>
       <r>   15.8396    0.0000 </r>
       <r>   18.4643    0.0000 </r>
       <r>   18.4643    0.0000 </r>
       <r>   18.7801    0.0000 </r>
       <r>   20.2083    0.0000 </r>
       <r>   21.3501    0.0000 </r>
       <r>   22.3353    0.0000 </r>
       <r>   22.3353    0.0000 </r>
       <r>   23.6484    0.0000 </r>
       <r>   23.6484    0.0000 </r>
       <r>   26.5639    0.0000 </r>
       <r>   26.5649    0.0000 </r>
      </set>
      <set comment="kpoint 5">
       <r>  -14.3646    1.0000 </r>
       <r>   -9.1543    1.0000 </r>
       <r>   -9.1543    1.0000 </r>
       <r>   -8.9946    1.0000 </r>
       <r>   -8.1200    1.0000 </r>
       <r>   -8.0320    1.0000 </r>
       <r>   -8.0320    1.0000 </r>
       <r>   -2.4941    1.0000 </r>
       <r>   -1.2663    1.0000 </r>
       <r>   -1.1906    1.0000 </r>
       <r>   -1.1906    1.0000 </r>
       <r>    2.0872    1.0000 </r>
       <r>    2.2603    1.0000 </r>
       <r>    2.7085    1.0000 </r>
       <r>    2.7085    1.0000 </r>
       <r>    2.9018    1.0000 </r>
       <r>    6.6983    0.0000 </r>
       <r>    6.8358    0.0000 </r>
       <r>    6.8358    0.0000 </r>
       <r>   12.3780    0.0000 </r>
       <r>   12.6712    0.0000 </r>
       <r>   12.6712    0.0000 </r>
       <r>   12.9158    0.0000 </r>
       <r>   13.2877    0.0000 </r>
       <r>   13.7568    0.0000 </r>
       <r>   16.5606    0.0000 </r>
       <r>   17.8455    0.0000 </r>
       <r>   18.1733    0.0000 </r>
       <r>   18.2203    0.0000 </r>
       <r>   18.2203    0.0000 </r>
       <r>   19.2372    0.0000 </r>
       <r>   19.2372    0.0000 </r>
       <r>   19.4050    0.0000 </r>
       <r>   25.1429    0.0000 </r>
       <r>   25.1429    0.0000 </r>
       <r>   25.1469    0.0000 </r>
       <r>   25.3462    0.0000 </r>
       <r>   25.4912    0.0000 </r>
       <r>   25.4912    0.0000 </r>
       <r>   26.5293    0.0000 </r>
      </set>
      <set comment="kpoint 6">
       <r>  -13.7103    1.0000 </r>
       <r>  -11.7814    1.0000 </r>
       <r>   -9.9142    1.0000 </r>
       <r>   -9.8816    1.0000 </r>
       <r>   -6.2548    1.0000 </r>
       <r>   -6.2276    1.0000 </r>
       <r>   -4.4506    1.0000 </r>
       <r>   -2.8816    1.0000 </r>
       <r>   -2.8183    1.0000 </r>
       <r>   -1.7217    1.0000 </r>
       <r>   -0.5627    1.0000 </r>
       <r>   -0.1192    1.0000 </r>
       <r>    0.4774    1.0000 </r>
       <r>    1.0294    1.0000 </r>
       <r>    2.4651    1.0000 </r>
       <r>    2.5451    1.0137 </r>
       <r>    7.5919   -0.0135 </r>
       <r>    7.6404    0.0000 </r>
       <r>   10.0518    0.0000 </r>
       <r>   12.9774    0.0000 </r>
       <r>   13.3230    0.0000 </r>
       <r>   13.8085    0.0000 </r>
       <r>   14.5416    0.0000 </r>
       <r>   14.9839    0.0000 </r>
       <r>   15.2732    0.0000 </r>
       <r>   15.7288    0.0000 </r>
       <r>   16.1687    0.0000 </r>
       <r>   16.6322    0.0000 </r>
       <r>   16.6750    0.0000 </r>
       <r>   19.0188    0.0000 </r>
       <r>   19.0957    0.0000 </r>
       <r>   19.3245    0.0000 </r>
       <r>   21.0757    0.0000 </r>
       <r>   21.5539    0.0000 </r>
       <r>   21.6039    0.0000 </r>
       <r>   21.6703    0.0000 </r>
       <r>   24.3272    0.0000 </r>
       <r>   24.7324    0.0000 </r>
       <r>   24.7647    0.0000 </r>
       <r>   27.1827    0.0000 </r>
      </set>
      <set comment="kpoint 7">
       <r>  -12.4265    1.0000 </r>
       <r>  -12.4023    1.0000 </r>
       <r>  -12.4023    1.0000 </r>
       <r>   -7.5142    1.0000 </r>
       <r>   -7.3125    1.0000 </r>
       <r>   -5.3774    1.0000 </r>
       <r>   -2.6129    1.0000 </r>
       <r>   -2.6129    1.0000 </r>
       <r>   -2.4795    1.0000 </r>
       <r>   -1.3080    1.0000 </r>
       <r>   -1.1751    1.0000 </r>
       <r>   -1.1751    1.0000 </r>
       <r>   -0.2350    1.0000 </r>
       <r>   -0.1912    1.0000 </r>
       <r>   -0.1912    1.0000 </r>
       <r>    5.0287    0.9682 </r>
       <r>    5.2388    0.0373 </r>
       <r>   11.5011    0.0000 </r>
       <r>   11.5011    0.0000 </r>
       <r>   11.5633    0.0000 </r>
       <r>   14.7485    0.0000 </r>
       <r>   14.8632    0.0000 </r>
       <r>   14.8632    0.0000 </r>
       <r>   15.2389    0.0000 </r>
       <r>   15.3273    0.0000 </r>
       <r>   15.3273    0.0000 </r>
       <r>   15.4340    0.0000 </r>
       <r>   16.5981    0.0000 </r>
       <r>   16.5981    0.0000 </r>
       <r>   17.1862    0.0000 </r>
       <r>   18.7836    0.0000 </r>
       <r>   19.2143    0.0000 </r>
       <r>   22.0985    0.0000 </r>
       <r>   22.4766    0.0000 </r>
       <r>   22.7101    0.0000 </r>
       <r>   22.7101    0.0000 </r>
       <r>   22.7657    0.0000 </r>
       <r>   22.8478    0.0000 </r>
       <r>   22.8478    0.0000 </r>
       <r>   23.9641    0.0000 </r>
      </set>
      <set comment="kpoint 8">
       <r>  -13.7024    1.0000 </r>
       <r>  -11.7487    1.0000 </r>
       <r>   -9.9561    1.0000 </r>
       <r>   -9.9561    1.0000 </r>
       <r>   -6.1782    1.0000 </r>
       <r>   -6.1782    1.0000 </r>
       <r>   -4.4286    1.0000 </r>
       <r>   -2.8623    1.0000 </r>
       <r>   -2.8623    1.0000 </r>
       <r>   -1.7073    1.0000 </r>
       <r>   -0.6117    1.0000 </r>
       <r>   -0.1468    1.0000 </r>
       <r>    0.5449    1.0000 </r>
       <r>    1.0646    1.0000 </r>
       <r>    2.4090    1.0000 </r>
       <r>    2.4090    1.0133 </r>
       <r>    7.7150   -0.0134 </r>
       <r>    7.7150    0.0000 </r>
       <r>   10.0321    0.0000 </r>
       <r>   12.7368    0.0000 </r>
       <r>   13.3507    0.0000 </r>
       <r>   13.8065    0.0000 </r>
       <r>   14.5242    0.0000 </r>
       <r>   15.2614    0.0000 </r>
       <r>   15.2614    0.0000 </r>
       <r>   15.7425    0.0000 </r>
       <r>   15.9083    0.0000 </r>
       <r>   16.5948    0.0000 </r>
       <r>   16.5948    0.0000 </r>
       <r>   19.1795    0.0000 </r>
       <r>   19.2728    0.0000 </r>
       <r>   19.2728    0.0000 </r>
       <r>   21.2570    0.0000 </r>
       <r>   21.4015    0.0000 </r>
       <r>   21.7488    0.0000 </r>
       <r>   21.7488    0.0000 </r>
       <r>   24.4310    0.0000 </r>
       <r>   24.7784    0.0000 </r>
       <r>   24.7784    0.0000 </r>
       <r>   27.3535    0.0000 </r>
      </set>
      <set comment="kpoint 9">
       <r>  -14.1398    1.0000 </r>
       <r>   -8.9843    1.0000 </r>
       <r>   -8.9843    1.0000 </r>
       <r>   -8.8244    1.0000 </r>
       <r>   -7.9846    1.0000 </r>
       <r>   -7.8939    1.0000 </r>
       <r>   -7.8939    1.0000 </r>
       <r>   -3.6076    1.0000 </r>
       <r>   -1.2218    1.0000 </r>
       <r>   -1.1473    1.0000 </r>
       <r>   -1.1473    1.0000 </r>
       <r>    1.8440    1.0000 </r>
       <r>    1.8440    1.0000 </r>
       <r>    2.0329    1.0000 </r>
       <r>    2.1162    1.0000 </r>
       <r>    2.2904    1.0000 </r>
       <r>    5.7300    0.0000 </r>
       <r>    5.8432    0.0000 </r>
       <r>    5.8432    0.0000 </r>
       <r>   12.6623    0.0000 </r>
       <r>   12.9553    0.0000 </r>
       <r>   12.9553    0.0000 </r>
       <r>   13.3645    0.0000 </r>
       <r>   13.8359    0.0000 </r>
       <r>   16.3306    0.0000 </r>
       <r>   16.9225    0.0000 </r>
       <r>   18.0667    0.0000 </r>
       <r>   18.6068    0.0000 </r>
       <r>   18.6915    0.0000 </r>
       <r>   18.6915    0.0000 </r>
       <r>   23.7062    0.0000 </r>
       <r>   23.7062    0.0000 </r>
       <r>   23.8495    0.0000 </r>
       <r>   24.8224    0.0000 </r>
       <r>   25.1189    0.0000 </r>
       <r>   25.1197    0.0000 </r>
       <r>   25.1610    0.0000 </r>
       <r>   25.1712    0.0000 </r>
       <r>   25.1712    0.0000 </r>
       <r>   25.2168    0.0000 </r>
      </set>
      <set comment="kpoint 10">
       <r>  -13.4938    1.0000 </r>
       <r>  -11.5884    1.0000 </r>
       <r>   -9.7426    1.0000 </r>
       <r>   -9.7107    1.0000 </r>
       <r>   -6.1302    1.0000 </r>
       <r>   -6.1041    1.0000 </r>
       <r>   -4.3436    1.0000 </r>
       <r>   -2.8121    1.0000 </r>
       <r>   -2.8061    1.0000 </r>
       <r>   -2.7442    1.0000 </r>
       <r>   -0.5337    1.0000 </r>
       <r>   -0.5211    1.0000 </r>
       <r>   -0.0600    1.0000 </r>
       <r>    1.0651    1.0000 </r>
       <r>    1.5452    1.0000 </r>
       <r>    1.6210    1.0000 </r>
       <r>    6.7975   -0.0184 </r>
       <r>    6.8285    0.0000 </r>
       <r>    9.3045    0.0000 </r>
       <r>   13.2330    0.0000 </r>
       <r>   13.6611    0.0000 </r>
       <r>   14.0644    0.0000 </r>
       <r>   15.3678    0.0000 </r>
       <r>   15.6716    0.0000 </r>
       <r>   16.1199    0.0000 </r>
       <r>   16.1819    0.0000 </r>
       <r>   16.2411    0.0000 </r>
       <r>   17.3984    0.0000 </r>
       <r>   18.3447    0.0000 </r>
       <r>   19.3357    0.0000 </r>
       <r>   20.8002    0.0000 </r>
       <r>   21.1378    0.0000 </r>
       <r>   21.5498    0.0000 </r>
       <r>   22.7266    0.0000 </r>
       <r>   23.6307    0.0000 </r>
       <r>   23.6976    0.0000 </r>
       <r>   24.1527    0.0000 </r>
       <r>   26.0349    0.0000 </r>
       <r>   26.0736    0.0000 </r>
       <r>   26.2259    0.0000 </r>
      </set>
      <set comment="kpoint 11">
       <r>  -12.2260    1.0000 </r>
       <r>  -12.2022    1.0000 </r>
       <r>  -12.2022    1.0000 </r>
       <r>   -7.3710    1.0000 </r>
       <r>   -7.1681    1.0000 </r>
       <r>   -5.2780    1.0000 </r>
       <r>   -2.5295    1.0000 </r>
       <r>   -2.5295    1.0000 </r>
       <r>   -2.3945    1.0000 </r>
       <r>   -1.2762    1.0000 </r>
       <r>   -1.2469    1.0000 </r>
       <r>   -1.2340    1.0000 </r>
       <r>   -1.2340    1.0000 </r>
       <r>   -1.1124    1.0000 </r>
       <r>   -1.1124    1.0000 </r>
       <r>    4.2206    1.0000 </r>
       <r>    4.4249    0.2438 </r>
       <r>   10.9067    0.0000 </r>
       <r>   10.9067    0.0000 </r>
       <r>   10.9643    0.0000 </r>
       <r>   13.9999    0.0000 </r>
       <r>   15.3325    0.0000 </r>
       <r>   15.5048    0.0000 </r>
       <r>   15.5048    0.0000 </r>
       <r>   16.7996    0.0000 </r>
       <r>   16.7996    0.0000 </r>
       <r>   17.4011    0.0000 </r>
       <r>   17.4062    0.0000 </r>
       <r>   17.4962    0.0000 </r>
       <r>   17.4962    0.0000 </r>
       <r>   19.9264    0.0000 </r>
       <r>   20.4934    0.0000 </r>
       <r>   22.6316    0.0000 </r>
       <r>   22.8873    0.0000 </r>
       <r>   23.1776    0.0000 </r>
       <r>   23.1776    0.0000 </r>
       <r>   23.2033    0.0000 </r>
       <r>   23.2033    0.0000 </r>
       <r>   23.2169    0.0000 </r>
       <r>   25.6796    0.0000 </r>
      </set>
      <set comment="kpoint 12">
       <r>  -13.4861    1.0000 </r>
       <r>  -11.5564    1.0000 </r>
       <r>   -9.7840    1.0000 </r>
       <r>   -9.7840    1.0000 </r>
       <r>   -6.0537    1.0000 </r>
       <r>   -6.0537    1.0000 </r>
       <r>   -4.3232    1.0000 </r>
       <r>   -2.7978    1.0000 </r>
       <r>   -2.7882    1.0000 </r>
       <r>   -2.7882    1.0000 </r>
       <r>   -0.5689    1.0000 </r>
       <r>   -0.4686    1.0000 </r>
       <r>   -0.0896    1.0000 </r>
       <r>    1.1014    1.0000 </r>
       <r>    1.4888    1.0000 </r>
       <r>    1.4888    1.0000 </r>
       <r>    6.9043   -0.0181 </r>
       <r>    6.9043    0.0000 </r>
       <r>    9.3045    0.0000 </r>
       <r>   12.9919    0.0000 </r>
       <r>   13.6729    0.0000 </r>
       <r>   14.0746    0.0000 </r>
       <r>   15.6633    0.0000 </r>
       <r>   15.6633    0.0000 </r>
       <r>   15.9778    0.0000 </r>
       <r>   16.1207    0.0000 </r>
       <r>   16.1207    0.0000 </r>
       <r>   17.4041    0.0000 </r>
       <r>   18.3162    0.0000 </r>
       <r>   19.5067    0.0000 </r>
       <r>   21.1364    0.0000 </r>
       <r>   21.1364    0.0000 </r>
       <r>   21.4598    0.0000 </r>
       <r>   22.9691    0.0000 </r>
       <r>   23.6537    0.0000 </r>
       <r>   23.6537    0.0000 </r>
       <r>   24.2280    0.0000 </r>
       <r>   25.7273    0.0000 </r>
       <r>   26.2073    0.0000 </r>
       <r>   26.2084    0.0000 </r>
      </set>
     </set>
    </set>
   </array>
  </eigenvalues>
  <separator name="orbital magnetization" >
   <v name="MAGDIPOLOUT">      0.00000000      0.00000000      0.00000000</v>
  </separator>
  <dos>
   <i name="efermi">      5.17916450 </i>
   <total>
    <array>
     <dimension dim="1">gridpoints</dimension>
     <dimension dim="2">spin</dimension>
     <field>energy</field>
     <field>total</field>
     <field>integrated</field>
     <set>
      <set comment="spin 1">
       <r>   -16.6659     0.0000     0.0000 </r>
       <r>   -16.6198     0.0000     0.0000 </r>
       <r>   -16.5736     0.0000     0.0000 </r>
       <r>   -16.5274     0.0000     0.0000 </r>
       <r>   -16.4813     0.0000     0.0000 </r>
       <r>   -16.4351     0.0000     0.0000 </r>
       <r>   -16.3890     0.0000     0.0000 </r>
       <r>   -16.3428     0.0000     0.0000 </r>
       <r>   -16.2966     0.0000     0.0000 </r>
       <r>   -16.2505     0.0000     0.0000 </r>
       <r>   -16.2043     0.0000     0.0000 </r>
       <r>   -16.1582     0.0000     0.0000 </r>
       <r>   -16.1120     0.0000     0.0000 </r>
       <r>   -16.0658     0.0000     0.0000 </r>
       <r>   -16.0197     0.0000     0.0000 </r>
       <r>   -15.9735     0.0000     0.0000 </r>
       <r>   -15.9273     0.0000     0.0000 </r>
       <r>   -15.8812     0.0000     0.0000 </r>
       <r>   -15.8350     0.0000     0.0000 </r>
       <r>   -15.7889     0.0000     0.0000 </r>
       <r>   -15.7427     0.0000     0.0000 </r>
       <r>   -15.6965     0.0000     0.0000 </r>
       <r>   -15.6504     0.0000     0.0000 </r>
       <r>   -15.6042     0.0000     0.0000 </r>
       <r>   -15.5580     0.0000     0.0000 </r>
       <r>   -15.5119     0.0000     0.0000 </r>
       <r>   -15.4657     0.0000     0.0000 </r>
       <r>   -15.4196     0.0000     0.0000 </r>
       <r>   -15.3734     0.0000     0.0000 </r>
       <r>   -15.3272     0.0000     0.0000 </r>
       <r>   -15.2811     0.0000     0.0000 </r>
       <r>   -15.2349     0.0000     0.0000 </r>
       <r>   -15.1888     0.0000     0.0000 </r>
       <r>   -15.1426     0.0000     0.0000 </r>
       <r>   -15.0964     0.0000     0.0000 </r>
       <r>   -15.0503     0.0000     0.0000 </r>
       <r>   -15.0041     0.0000     0.0000 </r>
       <r>   -14.9579     0.0000     0.0000 </r>
       <r>   -14.9118     0.0000     0.0000 </r>
       <r>   -14.8656     0.0000     0.0000 </r>
       <r>   -14.8195     0.0000     0.0000 </r>
       <r>   -14.7733     0.0000     0.0000 </r>
       <r>   -14.7271     0.0000     0.0000 </r>
       <r>   -14.6810     0.0000     0.0000 </r>
       <r>   -14.6348     0.0000     0.0000 </r>
       <r>   -14.5887     0.0000     0.0000 </r>
       <r>   -14.5425     0.0028     0.0000 </r>
       <r>   -14.4963     0.0200     0.0005 </r>
       <r>   -14.4502     0.0531     0.0021 </r>
       <r>   -14.4040     0.1020     0.0056 </r>
       <r>   -14.3578     0.1668     0.0118 </r>
       <r>   -14.3117     0.2467     0.0213 </r>
       <r>   -14.2655     0.3415     0.0348 </r>
       <r>   -14.2194     0.4511     0.0530 </r>
       <r>   -14.1732     0.5756     0.0767 </r>
       <r>   -14.1270     0.7143     0.1064 </r>
       <r>   -14.0809     0.8570     0.1427 </r>
       <r>   -14.0347     0.9999     0.1855 </r>
       <r>   -13.9885     1.1429     0.2350 </r>
       <r>   -13.9424     1.2860     0.2910 </r>
       <r>   -13.8962     1.4298     0.3537 </r>
       <r>   -13.8501     1.5609     0.4228 </r>
       <r>   -13.8039     1.6670     0.4974 </r>
       <r>   -13.7577     1.7481     0.5764 </r>
       <r>   -13.7116     1.8041     0.6584 </r>
       <r>   -13.6654     1.8351     0.7425 </r>
       <r>   -13.6193     1.8424     0.8275 </r>
       <r>   -13.5731     1.8262     0.9123 </r>
       <r>   -13.5269     1.7864     0.9957 </r>
       <r>   -13.4808     1.7226     1.0768 </r>
       <r>   -13.4346     1.6477     1.1546 </r>
       <r>   -13.3884     1.5728     1.2289 </r>
       <r>   -13.3423     1.4979     1.2998 </r>
       <r>   -13.2961     1.4229     1.3672 </r>
       <r>   -13.2500     1.3480     1.4312 </r>
       <r>   -13.2038     1.2730     1.4917 </r>
       <r>   -13.1576     1.1980     1.5487 </r>
       <r>   -13.1115     1.1230     1.6023 </r>
       <r>   -13.0653     1.0480     1.6524 </r>
       <r>   -13.0192     0.9729     1.6990 </r>
       <r>   -12.9730     0.8979     1.7422 </r>
       <r>   -12.9268     0.8228     1.7819 </r>
       <r>   -12.8807     0.7477     1.8182 </r>
       <r>   -12.8345     0.6726     1.8510 </r>
       <r>   -12.7883     0.5975     1.8803 </r>
       <r>   -12.7422     0.5224     1.9061 </r>
       <r>   -12.6960     0.4472     1.9285 </r>
       <r>   -12.6499     0.3720     1.9474 </r>
       <r>   -12.6037     0.2970     1.9629 </r>
       <r>   -12.5575     0.2362     1.9750 </r>
       <r>   -12.5114     0.2227     1.9854 </r>
       <r>   -12.4652     0.2590     1.9963 </r>
       <r>   -12.4190     0.3451     2.0101 </r>
       <r>   -12.3729     0.4803     2.0290 </r>
       <r>   -12.3267     0.6628     2.0552 </r>
       <r>   -12.2806     0.8924     2.0909 </r>
       <r>   -12.2344     1.1692     2.1383 </r>
       <r>   -12.1882     1.4884     2.1995 </r>
       <r>   -12.1421     1.8173     2.2758 </r>
       <r>   -12.0959     2.1465     2.3673 </r>
       <r>   -12.0498     2.4760     2.4740 </r>
       <r>   -12.0036     2.8057     2.5959 </r>
       <r>   -11.9574     3.1225     2.7330 </r>
       <r>   -11.9113     3.0592     2.8768 </r>
       <r>   -11.8651     2.8570     3.0135 </r>
       <r>   -11.8189     2.6136     3.1399 </r>
       <r>   -11.7728     2.3326     3.2542 </r>
       <r>   -11.7266     2.0352     3.3551 </r>
       <r>   -11.6805     1.7038     3.4415 </r>
       <r>   -11.6343     1.3333     3.5118 </r>
       <r>   -11.5881     0.9251     3.5640 </r>
       <r>   -11.5420     0.8389     3.6038 </r>
       <r>   -11.4958     0.8500     3.6428 </r>
       <r>   -11.4497     0.8612     3.6823 </r>
       <r>   -11.4035     0.8723     3.7223 </r>
       <r>   -11.3573     0.8834     3.7628 </r>
       <r>   -11.3112     0.8946     3.8039 </r>
       <r>   -11.2650     0.9057     3.8454 </r>
       <r>   -11.2188     0.9169     3.8875 </r>
       <r>   -11.1727     0.9280     3.9301 </r>
       <r>   -11.1265     0.9392     3.9732 </r>
       <r>   -11.0804     0.9503     4.0168 </r>
       <r>   -11.0342     0.9614     4.0609 </r>
       <r>   -10.9880     0.9726     4.1056 </r>
       <r>   -10.9419     0.9837     4.1507 </r>
       <r>   -10.8957     0.9949     4.1964 </r>
       <r>   -10.8495     1.0060     4.2426 </r>
       <r>   -10.8034     1.0172     4.2893 </r>
       <r>   -10.7572     1.0283     4.3365 </r>
       <r>   -10.7111     1.0395     4.3842 </r>
       <r>   -10.6649     1.0506     4.4324 </r>
       <r>   -10.6187     1.0618     4.4812 </r>
       <r>   -10.5726     1.0729     4.5305 </r>
       <r>   -10.5264     1.0841     4.5802 </r>
       <r>   -10.4803     1.0952     4.6305 </r>
       <r>   -10.4341     1.1064     4.6814 </r>
       <r>   -10.3879     1.1175     4.7327 </r>
       <r>   -10.3418     1.1287     4.7845 </r>
       <r>   -10.2956     1.1398     4.8369 </r>
       <r>   -10.2494     1.1510     4.8898 </r>
       <r>   -10.2033     1.1621     4.9432 </r>
       <r>   -10.1571     1.1733     4.9971 </r>
       <r>   -10.1110     1.1862     5.0515 </r>
       <r>   -10.0648     1.3385     5.1089 </r>
       <r>   -10.0186     1.6940     5.1779 </r>
       <r>    -9.9725     2.1139     5.2659 </r>
       <r>    -9.9263     2.4994     5.3725 </r>
       <r>    -9.8802     2.8403     5.4959 </r>
       <r>    -9.8340     3.1380     5.6340 </r>
       <r>    -9.7878     3.4065     5.7852 </r>
       <r>    -9.7417     3.5528     5.9468 </r>
       <r>    -9.6955     3.4695     6.1099 </r>
       <r>    -9.6493     3.2620     6.2653 </r>
       <r>    -9.6032     3.0545     6.4111 </r>
       <r>    -9.5570     2.8469     6.5473 </r>
       <r>    -9.5109     2.6394     6.6739 </r>
       <r>    -9.4647     2.4318     6.7910 </r>
       <r>    -9.4185     2.2242     6.8984 </r>
       <r>    -9.3724     2.0166     6.9963 </r>
       <r>    -9.3262     1.8090     7.0846 </r>
       <r>    -9.2800     1.6055     7.1634 </r>
       <r>    -9.2339     1.4175     7.2331 </r>
       <r>    -9.1877     1.2457     7.2945 </r>
       <r>    -9.1416     1.0905     7.3484 </r>
       <r>    -9.0954     0.9586     7.3955 </r>
       <r>    -9.0492     0.8527     7.4373 </r>
       <r>    -9.0031     0.7729     7.4747 </r>
       <r>    -8.9569     0.7161     7.5090 </r>
       <r>    -8.9108     0.6707     7.5410 </r>
       <r>    -8.8646     0.6354     7.5711 </r>
       <r>    -8.8184     0.6100     7.5998 </r>
       <r>    -8.7723     0.5885     7.6274 </r>
       <r>    -8.7261     0.5669     7.6541 </r>
       <r>    -8.6799     0.5454     7.6798 </r>
       <r>    -8.6338     0.5239     7.7044 </r>
       <r>    -8.5876     0.5023     7.7281 </r>
       <r>    -8.5415     0.4808     7.7508 </r>
       <r>    -8.4953     0.4593     7.7725 </r>
       <r>    -8.4491     0.4377     7.7932 </r>
       <r>    -8.4030     0.4162     7.8129 </r>
       <r>    -8.3568     0.3946     7.8317 </r>
       <r>    -8.3107     0.3731     7.8494 </r>
       <r>    -8.2645     0.3516     7.8661 </r>
       <r>    -8.2183     0.3307     7.8818 </r>
       <r>    -8.1722     0.3127     7.8967 </r>
       <r>    -8.1260     0.2991     7.9108 </r>
       <r>    -8.0798     0.2926     7.9244 </r>
       <r>    -8.0337     0.2930     7.9379 </r>
       <r>    -7.9875     0.3004     7.9516 </r>
       <r>    -7.9414     0.3134     7.9657 </r>
       <r>    -7.8952     0.3304     7.9806 </r>
       <r>    -7.8490     0.3494     7.9963 </r>
       <r>    -7.8029     0.3684     8.0128 </r>
       <r>    -7.7567     0.3874     8.0303 </r>
       <r>    -7.7105     0.4064     8.0486 </r>
       <r>    -7.6644     0.4255     8.0678 </r>
       <r>    -7.6182     0.4453     8.0879 </r>
       <r>    -7.5721     0.4686     8.1090 </r>
       <r>    -7.5259     0.4955     8.1312 </r>
       <r>    -7.4797     0.5261     8.1548 </r>
       <r>    -7.4336     0.5611     8.1798 </r>
       <r>    -7.3874     0.6131     8.2068 </r>
       <r>    -7.3413     0.6854     8.2367 </r>
       <r>    -7.2951     0.7755     8.2704 </r>
       <r>    -7.2489     0.8827     8.3086 </r>
       <r>    -7.2028     1.0070     8.3522 </r>
       <r>    -7.1566     1.1479     8.4018 </r>
       <r>    -7.1104     1.2936     8.4582 </r>
       <r>    -7.0643     1.4394     8.5213 </r>
       <r>    -7.0181     1.5851     8.5911 </r>
       <r>    -6.9720     1.7309     8.6676 </r>
       <r>    -6.9258     1.8768     8.7509 </r>
       <r>    -6.8796     2.0227     8.8409 </r>
       <r>    -6.8335     2.1686     8.9376 </r>
       <r>    -6.7873     2.3145     9.0411 </r>
       <r>    -6.7412     2.4605     9.1513 </r>
       <r>    -6.6950     2.6065     9.2683 </r>
       <r>    -6.6488     2.7526     9.3920 </r>
       <r>    -6.6027     2.8987     9.5224 </r>
       <r>    -6.5565     3.0448     9.6596 </r>
       <r>    -6.5103     3.1910     9.8035 </r>
       <r>    -6.4642     3.3372     9.9542 </r>
       <r>    -6.4180     3.4834    10.1116 </r>
       <r>    -6.3719     3.6182    10.2758 </r>
       <r>    -6.3257     3.5023    10.4392 </r>
       <r>    -6.2795     3.4506    10.5998 </r>
       <r>    -6.2334     3.3590    10.7571 </r>
       <r>    -6.1872     3.2118    10.9090 </r>
       <r>    -6.1410     3.0065    11.0528 </r>
       <r>    -6.0949     2.9509    11.1898 </r>
       <r>    -6.0487     2.7989    11.3225 </r>
       <r>    -6.0026     2.6267    11.4477 </r>
       <r>    -5.9564     2.4544    11.5650 </r>
       <r>    -5.9102     2.2820    11.6743 </r>
       <r>    -5.8641     2.1095    11.7756 </r>
       <r>    -5.8179     1.9368    11.8690 </r>
       <r>    -5.7718     1.7640    11.9545 </r>
       <r>    -5.7256     1.5911    12.0319 </r>
       <r>    -5.6794     1.4181    12.1014 </r>
       <r>    -5.6333     1.2449    12.1628 </r>
       <r>    -5.5871     1.0717    12.2163 </r>
       <r>    -5.5409     0.8983    12.2618 </r>
       <r>    -5.4948     0.7248    12.2992 </r>
       <r>    -5.4486     0.5573    12.3287 </r>
       <r>    -5.4025     0.4269    12.3513 </r>
       <r>    -5.3563     0.3382    12.3688 </r>
       <r>    -5.3101     0.2920    12.3832 </r>
       <r>    -5.2640     0.2864    12.3964 </r>
       <r>    -5.2178     0.2912    12.4097 </r>
       <r>    -5.1717     0.2960    12.4233 </r>
       <r>    -5.1255     0.3008    12.4370 </r>
       <r>    -5.0793     0.3056    12.4510 </r>
       <r>    -5.0332     0.3104    12.4653 </r>
       <r>    -4.9870     0.3151    12.4797 </r>
       <r>    -4.9408     0.3199    12.4943 </r>
       <r>    -4.8947     0.3247    12.5092 </r>
       <r>    -4.8485     0.3295    12.5243 </r>
       <r>    -4.8024     0.3343    12.5396 </r>
       <r>    -4.7562     0.3391    12.5552 </r>
       <r>    -4.7100     0.3438    12.5709 </r>
       <r>    -4.6639     0.3486    12.5869 </r>
       <r>    -4.6177     0.3534    12.6031 </r>
       <r>    -4.5715     0.3582    12.6196 </r>
       <r>    -4.5254     0.4662    12.6375 </r>
       <r>    -4.4792     0.7062    12.6646 </r>
       <r>    -4.4331     0.9356    12.7026 </r>
       <r>    -4.3869     1.1502    12.7507 </r>
       <r>    -4.3407     1.3476    12.8086 </r>
       <r>    -4.2946     1.3402    12.8711 </r>
       <r>    -4.2484     1.3035    12.9321 </r>
       <r>    -4.2023     1.2668    12.9914 </r>
       <r>    -4.1561     1.2300    13.0491 </r>
       <r>    -4.1099     1.1933    13.1050 </r>
       <r>    -4.0638     1.1566    13.1592 </r>
       <r>    -4.0176     1.1198    13.2118 </r>
       <r>    -3.9714     1.0831    13.2626 </r>
       <r>    -3.9253     1.0463    13.3118 </r>
       <r>    -3.8791     1.0096    13.3592 </r>
       <r>    -3.8330     0.9728    13.4050 </r>
       <r>    -3.7868     0.9361    13.4490 </r>
       <r>    -3.7406     0.8993    13.4914 </r>
       <r>    -3.6945     0.8626    13.5321 </r>
       <r>    -3.6483     0.8258    13.5710 </r>
       <r>    -3.6022     0.7891    13.6083 </r>
       <r>    -3.5560     0.7556    13.6439 </r>
       <r>    -3.5098     0.7274    13.6781 </r>
       <r>    -3.4637     0.7045    13.7112 </r>
       <r>    -3.4175     0.6869    13.7433 </r>
       <r>    -3.3713     0.6747    13.7747 </r>
       <r>    -3.3252     0.6677    13.8056 </r>
       <r>    -3.2790     0.6660    13.8364 </r>
       <r>    -3.2329     0.6696    13.8672 </r>
       <r>    -3.1867     0.6785    13.8983 </r>
       <r>    -3.1405     0.6926    13.9299 </r>
       <r>    -3.0944     0.7121    13.9623 </r>
       <r>    -3.0482     0.7369    13.9957 </r>
       <r>    -3.0020     0.7670    14.0304 </r>
       <r>    -2.9559     0.8024    14.0666 </r>
       <r>    -2.9097     4.1370    14.1680 </r>
       <r>    -2.8636     9.1891    14.4705 </r>
       <r>    -2.8174    13.8195    15.0026 </r>
       <r>    -2.7712    14.2660    15.7073 </r>
       <r>    -2.7251    11.1714    16.2939 </r>
       <r>    -2.6789     8.2062    16.7403 </r>
       <r>    -2.6328     5.7247    17.0595 </r>
       <r>    -2.5866     3.8361    17.2780 </r>
       <r>    -2.5404     2.5170    17.4221 </r>
       <r>    -2.4943     1.8358    17.5210 </r>
       <r>    -2.4481     1.4699    17.5964 </r>
       <r>    -2.4019     1.3335    17.6602 </r>
       <r>    -2.3558     1.3433    17.7220 </r>
       <r>    -2.3096     1.3549    17.7842 </r>
       <r>    -2.2635     1.3652    17.8470 </r>
       <r>    -2.2173     1.3744    17.9103 </r>
       <r>    -2.1711     1.3824    17.9739 </r>
       <r>    -2.1250     1.3892    18.0379 </r>
       <r>    -2.0788     1.3948    18.1021 </r>
       <r>    -2.0327     1.3991    18.1666 </r>
       <r>    -1.9865     1.4023    18.2313 </r>
       <r>    -1.9403     1.4043    18.2961 </r>
       <r>    -1.8942     1.4051    18.3609 </r>
       <r>    -1.8480     1.4047    18.4258 </r>
       <r>    -1.8018     1.4031    18.4906 </r>
       <r>    -1.7557     1.4003    18.5553 </r>
       <r>    -1.7095     1.4505    18.6201 </r>
       <r>    -1.6634     1.7306    18.6938 </r>
       <r>    -1.6172     1.9369    18.7788 </r>
       <r>    -1.5710     2.0686    18.8715 </r>
       <r>    -1.5249     2.1258    18.9686 </r>
       <r>    -1.4787     2.1083    19.0666 </r>
       <r>    -1.4325     2.0162    19.1621 </r>
       <r>    -1.3864     1.8496    19.2516 </r>
       <r>    -1.3402     1.6242    19.3319 </r>
       <r>    -1.2941     1.4203    19.4019 </r>
       <r>    -1.2479     1.3307    19.4652 </r>
       <r>    -1.2017     1.3589    19.5262 </r>
       <r>    -1.1556     1.7138    19.5958 </r>
       <r>    -1.1094     2.2347    19.6868 </r>
       <r>    -1.0633     2.7622    19.8022 </r>
       <r>    -1.0171     3.2761    19.9416 </r>
       <r>    -0.9709     3.7763    20.1045 </r>
       <r>    -0.9248     4.2629    20.2901 </r>
       <r>    -0.8786     4.7358    20.4978 </r>
       <r>    -0.8324     5.1951    20.7271 </r>
       <r>    -0.7863     5.6408    20.9772 </r>
       <r>    -0.7401     6.0728    21.2476 </r>
       <r>    -0.6940     6.4912    21.5377 </r>
       <r>    -0.6478     6.8987    21.8467 </r>
       <r>    -0.6016     7.2228    22.1751 </r>
       <r>    -0.5555     5.7360    22.4863 </r>
       <r>    -0.5093     4.1070    22.6970 </r>
       <r>    -0.4632     3.6636    22.8767 </r>
       <r>    -0.4170     3.1433    23.0339 </r>
       <r>    -0.3708     2.6043    23.1665 </r>
       <r>    -0.3247     2.5755    23.2852 </r>
       <r>    -0.2785     2.5915    23.4045 </r>
       <r>    -0.2323     2.6045    23.5244 </r>
       <r>    -0.1862     2.5396    23.6444 </r>
       <r>    -0.1400     1.9071    23.7480 </r>
       <r>    -0.0939     1.8093    23.8303 </r>
       <r>    -0.0477     1.9343    23.9173 </r>
       <r>    -0.0015     1.9860    24.0078 </r>
       <r>     0.0446     2.0367    24.1006 </r>
       <r>     0.0908     2.0864    24.1958 </r>
       <r>     0.1370     2.1349    24.2932 </r>
       <r>     0.1831     2.1824    24.3929 </r>
       <r>     0.2293     2.2289    24.4947 </r>
       <r>     0.2754     2.2742    24.5986 </r>
       <r>     0.3216     2.3186    24.7046 </r>
       <r>     0.3678     2.3618    24.8127 </r>
       <r>     0.4139     2.4040    24.9227 </r>
       <r>     0.4601     2.4451    25.0346 </r>
       <r>     0.5062     2.5076    25.1487 </r>
       <r>     0.5524     2.6036    25.2666 </r>
       <r>     0.5986     2.7054    25.3891 </r>
       <r>     0.6447     2.8104    25.5164 </r>
       <r>     0.6909     2.9185    25.6486 </r>
       <r>     0.7371     3.0296    25.7859 </r>
       <r>     0.7832     3.1440    25.9284 </r>
       <r>     0.8294     3.2614    26.0762 </r>
       <r>     0.8755     3.3819    26.2295 </r>
       <r>     0.9217     3.5056    26.3885 </r>
       <r>     0.9679     3.6324    26.5532 </r>
       <r>     1.0140     3.3260    26.7195 </r>
       <r>     1.0602     2.6664    26.8522 </r>
       <r>     1.1063     2.6065    26.9744 </r>
       <r>     1.1525     2.5898    27.0944 </r>
       <r>     1.1987     2.5633    27.2134 </r>
       <r>     1.2448     2.5269    27.3309 </r>
       <r>     1.2910     2.4806    27.4465 </r>
       <r>     1.3372     2.4244    27.5598 </r>
       <r>     1.3833     2.3583    27.6702 </r>
       <r>     1.4295     2.2823    27.7774 </r>
       <r>     1.4756     2.1965    27.8808 </r>
       <r>     1.5218     2.1107    27.9801 </r>
       <r>     1.5680     2.0525    28.0761 </r>
       <r>     1.6141     2.0003    28.1696 </r>
       <r>     1.6603     1.9655    28.2612 </r>
       <r>     1.7065     1.9165    28.3508 </r>
       <r>     1.7526     1.9140    28.4392 </r>
       <r>     1.7988     1.9226    28.5276 </r>
       <r>     1.8449     1.9369    28.6168 </r>
       <r>     1.8911     1.9439    28.7063 </r>
       <r>     1.9373     1.9448    28.7961 </r>
       <r>     1.9834     1.9394    28.8858 </r>
       <r>     2.0296     1.9278    28.9751 </r>
       <r>     2.0757     1.9110    29.0637 </r>
       <r>     2.1219     1.8935    29.1515 </r>
       <r>     2.1681     1.8738    29.2385 </r>
       <r>     2.2142     1.8540    29.3245 </r>
       <r>     2.2604     1.8390    29.4097 </r>
       <r>     2.3066     1.8341    29.4945 </r>
       <r>     2.3527     1.8366    29.5791 </r>
       <r>     2.3989     1.8487    29.6642 </r>
       <r>     2.4450     1.8509    29.7497 </r>
       <r>     2.4912     1.8045    29.8342 </r>
       <r>     2.5374     1.7446    29.9162 </r>
       <r>     2.5835     1.6792    29.9952 </r>
       <r>     2.6297     1.6249    30.0714 </r>
       <r>     2.6758     1.5830    30.1454 </r>
       <r>     2.7220     1.5531    30.2177 </r>
       <r>     2.7682     1.5288    30.2889 </r>
       <r>     2.8143     1.5077    30.3589 </r>
       <r>     2.8605     1.4899    30.4281 </r>
       <r>     2.9067     1.4753    30.4965 </r>
       <r>     2.9528     1.4617    30.5643 </r>
       <r>     2.9990     1.4478    30.6315 </r>
       <r>     3.0451     1.4334    30.6980 </r>
       <r>     3.0913     1.4186    30.7638 </r>
       <r>     3.1375     1.4035    30.8290 </r>
       <r>     3.1836     1.3879    30.8934 </r>
       <r>     3.2298     1.3719    30.9571 </r>
       <r>     3.2760     1.3555    31.0200 </r>
       <r>     3.3221     1.3387    31.0822 </r>
       <r>     3.3683     1.3215    31.1436 </r>
       <r>     3.4144     1.3039    31.2042 </r>
       <r>     3.4606     1.2859    31.2640 </r>
       <r>     3.5068     1.2675    31.3229 </r>
       <r>     3.5529     1.2028    31.3803 </r>
       <r>     3.5991     1.0487    31.4324 </r>
       <r>     3.6452     0.9103    31.4775 </r>
       <r>     3.6914     0.7694    31.5161 </r>
       <r>     3.7376     0.6801    31.5494 </r>
       <r>     3.7837     0.6130    31.5792 </r>
       <r>     3.8299     0.5597    31.6062 </r>
       <r>     3.8761     0.5204    31.6311 </r>
       <r>     3.9222     0.4949    31.6545 </r>
       <r>     3.9684     0.4756    31.6769 </r>
       <r>     4.0145     0.4563    31.6984 </r>
       <r>     4.0607     0.4370    31.7190 </r>
       <r>     4.1069     0.4176    31.7387 </r>
       <r>     4.1530     0.3983    31.7575 </r>
       <r>     4.1992     0.3788    31.7755 </r>
       <r>     4.2453     0.3595    31.7925 </r>
       <r>     4.2915     0.3406    31.8087 </r>
       <r>     4.3377     0.3221    31.8240 </r>
       <r>     4.3838     0.3043    31.8384 </r>
       <r>     4.4300     0.2869    31.8521 </r>
       <r>     4.4762     0.2704    31.8649 </r>
       <r>     4.5223     0.2550    31.8770 </r>
       <r>     4.5685     0.2407    31.8885 </r>
       <r>     4.6146     0.2276    31.8993 </r>
       <r>     4.6608     0.2155    31.9095 </r>
       <r>     4.7070     0.2046    31.9192 </r>
       <r>     4.7531     0.1948    31.9284 </r>
       <r>     4.7993     0.1861    31.9372 </r>
       <r>     4.8455     0.1786    31.9456 </r>
       <r>     4.8916     0.1721    31.9537 </r>
       <r>     4.9378     0.1668    31.9615 </r>
       <r>     4.9839     0.1626    31.9691 </r>
       <r>     5.0301     0.1595    31.9766 </r>
       <r>     5.0763     0.1575    31.9839 </r>
       <r>     5.1224     0.1566    31.9911 </r>
       <r>     5.1686     0.1569    31.9983 </r>
       <r>     5.2147     0.1582    32.0056 </r>
       <r>     5.2609     0.1607    32.0130 </r>
       <r>     5.3071     0.1642    32.0205 </r>
       <r>     5.3532     0.1688    32.0281 </r>
       <r>     5.3994     0.1743    32.0361 </r>
       <r>     5.4456     0.1809    32.0443 </r>
       <r>     5.4917     0.1886    32.0528 </r>
       <r>     5.5379     0.1972    32.0617 </r>
       <r>     5.5840     0.2069    32.0710 </r>
       <r>     5.6302     0.2176    32.0808 </r>
       <r>     5.6764     0.2294    32.0911 </r>
       <r>     5.7225     0.2422    32.1020 </r>
       <r>     5.7687     0.2564    32.1135 </r>
       <r>     5.8148     0.2730    32.1257 </r>
       <r>     5.8610     0.2920    32.1387 </r>
       <r>     5.9072     0.3148    32.1527 </r>
       <r>     5.9533     0.3414    32.1678 </r>
       <r>     5.9995     0.3721    32.1843 </r>
       <r>     6.0457     0.4062    32.2023 </r>
       <r>     6.0918     0.4438    32.2219 </r>
       <r>     6.1380     0.4849    32.2433 </r>
       <r>     6.1841     0.5295    32.2667 </r>
       <r>     6.2303     0.5774    32.2922 </r>
       <r>     6.2765     0.6283    32.3200 </r>
       <r>     6.3226     0.6821    32.3503 </r>
       <r>     6.3688     0.7389    32.3831 </r>
       <r>     6.4150     0.7986    32.4185 </r>
       <r>     6.4611     0.8613    32.4568 </r>
       <r>     6.5073     0.9269    32.4981 </r>
       <r>     6.5534     0.9955    32.5425 </r>
       <r>     6.5996     1.0671    32.5901 </r>
       <r>     6.6458     1.1416    32.6410 </r>
       <r>     6.6919     1.2190    32.6955 </r>
       <r>     6.7381     1.3016    32.7536 </r>
       <r>     6.7842     1.3931    32.8158 </r>
       <r>     6.8304     1.4664    32.8820 </r>
       <r>     6.8766     1.5295    32.9513 </r>
       <r>     6.9227     1.5477    33.0225 </r>
       <r>     6.9689     1.5543    33.0941 </r>
       <r>     7.0151     1.5590    33.1659 </r>
       <r>     7.0612     1.5618    33.2380 </r>
       <r>     7.1074     1.5627    33.3101 </r>
       <r>     7.1535     1.5616    33.3822 </r>
       <r>     7.1997     1.5587    33.4542 </r>
       <r>     7.2459     1.5539    33.5261 </r>
       <r>     7.2920     1.5472    33.5977 </r>
       <r>     7.3382     1.5385    33.6689 </r>
       <r>     7.3843     1.5280    33.7397 </r>
       <r>     7.4305     1.5156    33.8099 </r>
       <r>     7.4767     1.5013    33.8796 </r>
       <r>     7.5228     1.4850    33.9485 </r>
       <r>     7.5690     1.4669    34.0166 </r>
       <r>     7.6152     1.4502    34.0839 </r>
       <r>     7.6613     1.4412    34.1506 </r>
       <r>     7.7075     1.4438    34.2172 </r>
       <r>     7.7536     1.4538    34.2841 </r>
       <r>     7.7998     1.4618    34.3514 </r>
       <r>     7.8460     1.4677    34.4190 </r>
       <r>     7.8921     1.4713    34.4868 </r>
       <r>     7.9383     1.4726    34.5548 </r>
       <r>     7.9845     1.4703    34.6227 </r>
       <r>     8.0306     1.4638    34.6905 </r>
       <r>     8.0768     1.4532    34.7578 </r>
       <r>     8.1229     1.4379    34.8246 </r>
       <r>     8.1691     1.4148    34.8904 </r>
       <r>     8.2153     1.3828    34.9551 </r>
       <r>     8.2614     1.3420    35.0180 </r>
       <r>     8.3076     1.2925    35.0788 </r>
       <r>     8.3537     1.2342    35.1372 </r>
       <r>     8.3999     1.1671    35.1926 </r>
       <r>     8.4461     1.0912    35.2448 </r>
       <r>     8.4922     1.0065    35.2932 </r>
       <r>     8.5384     0.9130    35.3376 </r>
       <r>     8.5846     0.8437    35.3780 </r>
       <r>     8.6307     0.7869    35.4156 </r>
       <r>     8.6769     0.7605    35.4512 </r>
       <r>     8.7230     0.7569    35.4862 </r>
       <r>     8.7692     0.7551    35.5211 </r>
       <r>     8.8154     0.7534    35.5559 </r>
       <r>     8.8615     0.7517    35.5906 </r>
       <r>     8.9077     0.7500    35.6253 </r>
       <r>     8.9538     0.7483    35.6599 </r>
       <r>     9.0000     0.7467    35.6944 </r>
       <r>     9.0462     0.7450    35.7288 </r>
       <r>     9.0923     0.7434    35.7632 </r>
       <r>     9.1385     0.7418    35.7974 </r>
       <r>     9.1847     0.7402    35.8316 </r>
       <r>     9.2308     0.7386    35.8658 </r>
       <r>     9.2770     0.7371    35.8998 </r>
       <r>     9.3231     0.7518    35.9340 </r>
       <r>     9.3693     0.7894    35.9696 </r>
       <r>     9.4155     0.8253    36.0068 </r>
       <r>     9.4616     0.8595    36.0457 </r>
       <r>     9.5078     0.8921    36.0862 </r>
       <r>     9.5540     0.9230    36.1281 </r>
       <r>     9.6001     0.9523    36.1713 </r>
       <r>     9.6463     0.9799    36.2160 </r>
       <r>     9.6924     1.0058    36.2618 </r>
       <r>     9.7386     1.0301    36.3088 </r>
       <r>     9.7848     1.0528    36.3569 </r>
       <r>     9.8309     1.0737    36.4060 </r>
       <r>     9.8771     1.0931    36.4560 </r>
       <r>     9.9232     1.1110    36.5069 </r>
       <r>     9.9694     1.1279    36.5585 </r>
       <r>    10.0156     1.1436    36.6110 </r>
       <r>    10.0617     1.1612    36.6641 </r>
       <r>    10.1079     1.1837    36.7183 </r>
       <r>    10.1541     1.2040    36.7734 </r>
       <r>    10.2002     1.2220    36.8294 </r>
       <r>    10.2464     1.2377    36.8862 </r>
       <r>    10.2925     1.2512    36.9436 </r>
       <r>    10.3387     1.2624    37.0016 </r>
       <r>    10.3849     1.2714    37.0601 </r>
       <r>    10.4310     1.2781    37.1190 </r>
       <r>    10.4772     1.2825    37.1781 </r>
       <r>    10.5233     1.2847    37.2374 </r>
       <r>    10.5695     1.2847    37.2967 </r>
       <r>    10.6157     1.2823    37.3559 </r>
       <r>    10.6618     1.2669    37.4149 </r>
       <r>    10.7080     1.2130    37.4722 </r>
       <r>    10.7542     1.1596    37.5269 </r>
       <r>    10.8003     1.1067    37.5792 </r>
       <r>    10.8465     1.0543    37.6291 </r>
       <r>    10.8926     1.0024    37.6766 </r>
       <r>    10.9388     0.9531    37.7217 </r>
       <r>    10.9850     0.9202    37.7649 </r>
       <r>    11.0311     0.9234    37.8074 </r>
       <r>    11.0773     0.9264    37.8501 </r>
       <r>    11.1235     0.9290    37.8929 </r>
       <r>    11.1696     0.9311    37.9359 </r>
       <r>    11.2158     0.9328    37.9789 </r>
       <r>    11.2619     0.9340    38.0220 </r>
       <r>    11.3081     0.9347    38.0651 </r>
       <r>    11.3543     0.9349    38.1083 </r>
       <r>    11.4004     0.9347    38.1514 </r>
       <r>    11.4466     0.9339    38.1945 </r>
       <r>    11.4927     0.9328    38.2376 </r>
       <r>    11.5389     0.9310    38.2806 </r>
       <r>    11.5851     0.9285    38.3236 </r>
       <r>    11.6312     0.9269    38.3664 </r>
       <r>    11.6774     0.9265    38.4092 </r>
       <r>    11.7236     0.9273    38.4519 </r>
       <r>    11.7697     0.9292    38.4948 </r>
       <r>    11.8159     0.9324    38.5377 </r>
       <r>    11.8620     0.9367    38.5809 </r>
       <r>    11.9082     0.9423    38.6242 </r>
       <r>    11.9544     0.9490    38.6679 </r>
       <r>    12.0005     0.9569    38.7119 </r>
       <r>    12.0467     0.9659    38.7563 </r>
       <r>    12.0928     0.9762    38.8011 </r>
       <r>    12.1390     0.9909    38.8464 </r>
       <r>    12.1852     1.0201    38.8928 </r>
       <r>    12.2313     1.0635    38.9408 </r>
       <r>    12.2775     1.1321    38.9913 </r>
       <r>    12.3237     1.2624    39.0463 </r>
       <r>    12.3698     1.4567    39.1088 </r>
       <r>    12.4160     1.6747    39.1814 </r>
       <r>    12.4621     1.8724    39.2632 </r>
       <r>    12.5083     2.0774    39.3544 </r>
       <r>    12.5545     2.2897    39.4551 </r>
       <r>    12.6006     2.4171    39.5641 </r>
       <r>    12.6468     2.5533    39.6787 </r>
       <r>    12.6930     2.7178    39.8003 </r>
       <r>    12.7391     2.8979    39.9298 </r>
       <r>    12.7853     3.0393    40.0670 </r>
       <r>    12.8314     3.1482    40.2099 </r>
       <r>    12.8776     3.2245    40.3572 </r>
       <r>    12.9238     3.2681    40.5071 </r>
       <r>    12.9699     3.2768    40.6583 </r>
       <r>    13.0161     3.1745    40.8075 </r>
       <r>    13.0622     3.0852    40.9518 </r>
       <r>    13.1084     3.0233    41.0927 </r>
       <r>    13.1546     2.9890    41.2314 </r>
       <r>    13.2007     2.9816    41.3691 </r>
       <r>    13.2469     2.9815    41.5064 </r>
       <r>    13.2931     3.0311    41.6452 </r>
       <r>    13.3392     3.1041    41.7864 </r>
       <r>    13.3854     3.2427    41.9329 </r>
       <r>    13.4315     3.3598    42.0855 </r>
       <r>    13.4777     3.4390    42.2425 </r>
       <r>    13.5239     3.5093    42.4029 </r>
       <r>    13.5700     3.5709    42.5664 </r>
       <r>    13.6162     3.6237    42.7324 </r>
       <r>    13.6623     3.6639    42.9008 </r>
       <r>    13.7085     3.4997    43.0664 </r>
       <r>    13.7547     3.3396    43.2242 </r>
       <r>    13.8008     3.2023    43.3751 </r>
       <r>    13.8470     3.1638    43.5217 </r>
       <r>    13.8932     3.1446    43.6673 </r>
       <r>    13.9393     3.1287    43.8121 </r>
       <r>    13.9855     3.1162    43.9562 </r>
       <r>    14.0316     3.1042    44.0998 </r>
       <r>    14.0778     3.0631    44.2425 </r>
       <r>    14.1240     2.9482    44.3813 </r>
       <r>    14.1701     2.8406    44.5148 </r>
       <r>    14.2163     2.7403    44.6436 </r>
       <r>    14.2625     2.6472    44.7679 </r>
       <r>    14.3086     2.5613    44.8881 </r>
       <r>    14.3548     2.4828    45.0045 </r>
       <r>    14.4009     2.4114    45.1175 </r>
       <r>    14.4471     2.3474    45.2273 </r>
       <r>    14.4933     2.2906    45.3343 </r>
       <r>    14.5394     2.2470    45.4389 </r>
       <r>    14.5856     2.2917    45.5436 </r>
       <r>    14.6317     2.3315    45.6503 </r>
       <r>    14.6779     2.6058    45.7638 </r>
       <r>    14.7241     2.8940    45.8908 </r>
       <r>    14.7702     3.1719    46.0309 </r>
       <r>    14.8164     3.4358    46.1834 </r>
       <r>    14.8626     3.8936    46.3528 </r>
       <r>    14.9087     4.2662    46.5415 </r>
       <r>    14.9549     4.9139    46.7546 </r>
       <r>    15.0010     5.3300    46.9926 </r>
       <r>    15.0472     6.1346    47.2476 </r>
       <r>    15.0934     6.6542    47.5520 </r>
       <r>    15.1395     6.4257    47.8537 </r>
       <r>    15.1857     6.2493    48.1460 </r>
       <r>    15.2318     6.1250    48.4314 </r>
       <r>    15.2780     5.7866    48.7121 </r>
       <r>    15.3242     4.7367    48.9478 </r>
       <r>    15.3703     4.7242    49.1665 </r>
       <r>    15.4165     5.0818    49.3906 </r>
       <r>    15.4627     5.1800    49.6285 </r>
       <r>    15.5088     5.2503    49.8691 </r>
       <r>    15.5550     5.2008    50.1112 </r>
       <r>    15.6011     4.9123    50.3456 </r>
       <r>    15.6473     4.3849    50.5611 </r>
       <r>    15.6935     4.1467    50.7534 </r>
       <r>    15.7396     4.2862    50.9478 </r>
       <r>    15.7858     4.4812    51.1503 </r>
       <r>    15.8320     4.6621    51.3614 </r>
       <r>    15.8781     4.8456    51.5808 </r>
       <r>    15.9243     5.0115    51.8086 </r>
       <r>    15.9704     5.1427    52.0429 </r>
       <r>    16.0166     5.2570    52.2831 </r>
       <r>    16.0628     5.3537    52.5280 </r>
       <r>    16.1089     5.4685    52.7773 </r>
       <r>    16.1551     5.5199    53.0317 </r>
       <r>    16.2012     5.2766    53.2826 </r>
       <r>    16.2474     5.0254    53.5202 </r>
       <r>    16.2936     4.7663    53.7458 </r>
       <r>    16.3397     4.5981    53.9616 </r>
       <r>    16.3859     4.4758    54.1709 </r>
       <r>    16.4321     4.3793    54.3752 </r>
       <r>    16.4782     4.3086    54.5757 </r>
       <r>    16.5244     4.2636    54.7734 </r>
       <r>    16.5705     4.2459    54.9697 </r>
       <r>    16.6167     4.1517    55.1647 </r>
       <r>    16.6629     4.0854    55.3538 </r>
       <r>    16.7090     3.6024    55.5335 </r>
       <r>    16.7552     3.1016    55.6876 </r>
       <r>    16.8013     2.7392    55.8219 </r>
       <r>    16.8475     2.5074    55.9425 </r>
       <r>    16.8937     2.3996    56.0553 </r>
       <r>    16.9398     2.3560    56.1651 </r>
       <r>    16.9860     2.3181    56.2729 </r>
       <r>    17.0322     2.2848    56.3791 </r>
       <r>    17.0783     2.2562    56.4839 </r>
       <r>    17.1245     2.2322    56.5875 </r>
       <r>    17.1706     2.2128    56.6901 </r>
       <r>    17.2168     2.2031    56.7919 </r>
       <r>    17.2630     2.2199    56.8939 </r>
       <r>    17.3091     2.2523    56.9971 </r>
       <r>    17.3553     2.2914    57.1020 </r>
       <r>    17.4015     2.0062    57.2083 </r>
       <r>    17.4476     1.5122    57.2787 </r>
       <r>    17.4938     1.5400    57.3491 </r>
       <r>    17.5399     1.5700    57.4209 </r>
       <r>    17.5861     1.5993    57.4940 </r>
       <r>    17.6323     1.6304    57.5686 </r>
[...]
        <r>  0.0000  0.0000  0.0528  0.0000  0.0000  0.0000  0.0000  0.0000  0.0000 </r>
        <r>  0.0000  0.0000  0.0567  0.0000  0.0000  0.0000  0.0000  0.0000  0.0000 </r>
        <r>  0.0000  0.0000  0.0528  0.0000  0.0000  0.0000  0.0000  0.0000  0.0000 </r>
        <r>  0.0000  0.0000  0.0567  0.0000  0.0000  0.0000  0.0000  0.0000  0.0000 </r>
        <r>  0.0000  0.0000  0.0567  0.0000  0.0000  0.0000  0.0000  0.0000  0.0000 </r>
        <r>  0.0000  0.0000  0.0528  0.0000  0.0000  0.0000  0.0000  0.0000  0.0000 </r>
       </set>
       <set comment="band 17">
        <r>  0.0000  0.0000  0.0730  0.0000  0.0000  0.0000  0.0000  0.0000  0.0000 </r>
        <r>  0.0000  0.0000  0.0430  0.0000  0.0000  0.0000  0.0000  0.0000  0.0000 </r>
        <r>  0.0000  0.0000  0.0430  0.0000  0.0000  0.0000  0.0000  0.0000  0.0000 </r>
        <r>  0.0000  0.0000  0.0730  0.0000  0.0000  0.0000  0.0000  0.0000  0.0000 </r>
        <r>  0.0000  0.0000  0.0430  0.0000  0.0000  0.0000  0.0000  0.0000  0.0000 </r>
        <r>  0.0000  0.0000  0.0730  0.0000  0.0000  0.0000  0.0000  0.0000  0.0000 </r>
        <r>  0.0000  0.0000  0.0730  0.0000  0.0000  0.0000  0.0000  0.0000  0.0000 </r>
        <r>  0.0000  0.0000  0.0430  0.0000  0.0000  0.0000  0.0000  0.0000  0.0000 </r>
       </set>
       <set comment="band 18">
        <r>  0.0000  0.0000  0.0430  0.0000  0.0000  0.0000  0.0000  0.0000  0.0000 </r>
        <r>  0.0000  0.0000  0.0730  0.0000  0.0000  0.0000  0.0000  0.0000  0.0000 </r>
        <r>  0.0000  0.0000  0.0730  0.0000  0.0000  0.0000  0.0000  0.0000  0.0000 </r>
        <r>  0.0000  0.0000  0.0430  0.0000  0.0000  0.0000  0.0000  0.0000  0.0000 </r>
        <r>  0.0000  0.0000  0.0730  0.0000  0.0000  0.0000  0.0000  0.0000  0.0000 </r>
        <r>  0.0000  0.0000  0.0430  0.0000  0.0000  0.0000  0.0000  0.0000  0.0000 </r>
        <r>  0.0000  0.0000  0.0430  0.0000  0.0000  0.0000  0.0000  0.0000  0.0000 </r>
        <r>  0.0000  0.0000  0.0730  0.0000  0.0000  0.0000  0.0000  0.0000  0.0000 </r>
       </set>
       <set comment="band 19">
        <r>  0.0000  0.0000  0.0618  0.0000  0.0000  0.0000  0.0000  0.0000  0.0000 </r>
        <r>  0.0000  0.0000  0.0618  0.0000  0.0000  0.0000  0.0000  0.0000  0.0000 </r>
        <r>  0.0000  0.0000  0.0618  0.0000  0.0000  0.0000  0.0000  0.0000  0.0000 </r>
        <r>  0.0000  0.0000  0.0618  0.0000  0.0000  0.0000  0.0000  0.0000  0.0000 </r>
        <r>  0.0000  0.0000  0.0618  0.0000  0.0000  0.0000  0.0000  0.0000  0.0000 </r>
        <r>  0.0000  0.0000  0.0618  0.0000  0.0000  0.0000  0.0000  0.0000  0.0000 </r>
        <r>  0.0000  0.0000  0.0618  0.0000  0.0000  0.0000  0.0000  0.0000  0.0000 </r>
        <r>  0.0000  0.0000  0.0618  0.0000  0.0000  0.0000  0.0000  0.0000  0.0000 </r>
       </set>
       <set comment="band 20">
        <r>  0.0408  0.0047  0.0000  0.0140  0.0000  0.0000  0.0000  0.0000  0.0000 </r>
        <r>  0.0408  0.0047  0.0000  0.0140  0.0000  0.0000  0.0000  0.0000  0.0000 </r>
        <r>  0.0408  0.0047  0.0000  0.0140  0.0000  0.0000  0.0000  0.0000  0.0000 </r>
        <r>  0.0408  0.0047  0.0000  0.0140  0.0000  0.0000  0.0000  0.0000  0.0000 </r>
        <r>  0.0408  0.0047  0.0000  0.0140  0.0000  0.0000  0.0000  0.0000  0.0000 </r>
        <r>  0.0408  0.0047  0.0000  0.0140  0.0000  0.0000  0.0000  0.0000  0.0000 </r>
        <r>  0.0408  0.0047  0.0000  0.0140  0.0000  0.0000  0.0000  0.0000  0.0000 </r>
        <r>  0.0408  0.0047  0.0000  0.0140  0.0000  0.0000  0.0000  0.0000  0.0000 </r>
       </set>
       <set comment="band 21">
        <r>  0.0173  0.0113  0.0000  0.0338  0.0000  0.0000  0.0000  0.0000  0.0000 </r>
        <r>  0.0173  0.0113  0.0000  0.0338  0.0000  0.0000  0.0000  0.0000  0.0000 </r>
        <r>  0.0173  0.0113  0.0000  0.0338  0.0000  0.0000  0.0000  0.0000  0.0000 </r>
        <r>  0.0173  0.0113  0.0000  0.0338  0.0000  0.0000  0.0000  0.0000  0.0000 </r>
        <r>  0.0173  0.0113  0.0000  0.0338  0.0000  0.0000  0.0000  0.0000  0.0000 </r>
        <r>  0.0173  0.0113  0.0000  0.0338  0.0000  0.0000  0.0000  0.0000  0.0000 </r>
        <r>  0.0173  0.0113  0.0000  0.0338  0.0000  0.0000  0.0000  0.0000  0.0000 </r>
        <r>  0.0173  0.0113  0.0000  0.0338  0.0000  0.0000  0.0000  0.0000  0.0000 </r>
       </set>
       <set comment="band 22">
        <r>  0.0000  0.0000  0.0814  0.0000  0.0000  0.0000  0.0000  0.0000  0.0000 </r>
        <r>  0.0000  0.0000  0.0814  0.0000  0.0000  0.0000  0.0000  0.0000  0.0000 </r>
        <r>  0.0000  0.0000  0.0814  0.0000  0.0000  0.0000  0.0000  0.0000  0.0000 </r>
        <r>  0.0000  0.0000  0.0814  0.0000  0.0000  0.0000  0.0000  0.0000  0.0000 </r>
        <r>  0.0000  0.0000  0.0814  0.0000  0.0000  0.0000  0.0000  0.0000  0.0000 </r>
        <r>  0.0000  0.0000  0.0814  0.0000  0.0000  0.0000  0.0000  0.0000  0.0000 </r>
        <r>  0.0000  0.0000  0.0814  0.0000  0.0000  0.0000  0.0000  0.0000  0.0000 </r>
        <r>  0.0000  0.0000  0.0814  0.0000  0.0000  0.0000  0.0000  0.0000  0.0000 </r>
       </set>
       <set comment="band 23">
        <r>  0.0245  0.0090  0.0000  0.0207  0.0000  0.0000  0.0000  0.0000  0.0000 </r>
        <r>  0.0404  0.0077  0.0000  0.0274  0.0000  0.0000  0.0000  0.0000  0.0000 </r>
        <r>  0.0404  0.0154  0.0000  0.0198  0.0000  0.0000  0.0000  0.0000  0.0000 </r>
        <r>  0.0245  0.0166  0.0000  0.0131  0.0000  0.0000  0.0000  0.0000  0.0000 </r>
        <r>  0.0404  0.0154  0.0000  0.0198  0.0000  0.0000  0.0000  0.0000  0.0000 </r>
        <r>  0.0245  0.0166  0.0000  0.0131  0.0000  0.0000  0.0000  0.0000  0.0000 </r>
        <r>  0.0245  0.0090  0.0000  0.0207  0.0000  0.0000  0.0000  0.0000  0.0000 </r>
        <r>  0.0404  0.0077  0.0000  0.0274  0.0000  0.0000  0.0000  0.0000  0.0000 </r>
       </set>
       <set comment="band 24">
        <r>  0.0404  0.0179  0.0000  0.0172  0.0000  0.0000  0.0000  0.0000  0.0000 </r>
        <r>  0.0245  0.0192  0.0000  0.0106  0.0000  0.0000  0.0000  0.0000  0.0000 </r>
        <r>  0.0245  0.0115  0.0000  0.0182  0.0000  0.0000  0.0000  0.0000  0.0000 </r>
        <r>  0.0404  0.0102  0.0000  0.0249  0.0000  0.0000  0.0000  0.0000  0.0000 </r>
        <r>  0.0245  0.0115  0.0000  0.0182  0.0000  0.0000  0.0000  0.0000  0.0000 </r>
        <r>  0.0404  0.0102  0.0000  0.0249  0.0000  0.0000  0.0000  0.0000  0.0000 </r>
        <r>  0.0404  0.0179  0.0000  0.0172  0.0000  0.0000  0.0000  0.0000  0.0000 </r>
        <r>  0.0245  0.0192  0.0000  0.0106  0.0000  0.0000  0.0000  0.0000  0.0000 </r>
       </set>
       <set comment="band 25">
        <r>  0.0000  0.0536  0.0000  0.0179  0.0000  0.0000  0.0000  0.0000  0.0000 </r>
        <r>  0.0000  0.0536  0.0000  0.0179  0.0000  0.0000  0.0000  0.0000  0.0000 </r>
        <r>  0.0000  0.0536  0.0000  0.0179  0.0000  0.0000  0.0000  0.0000  0.0000 </r>
        <r>  0.0000  0.0536  0.0000  0.0179  0.0000  0.0000  0.0000  0.0000  0.0000 </r>
        <r>  0.0000  0.0536  0.0000  0.0179  0.0000  0.0000  0.0000  0.0000  0.0000 </r>
        <r>  0.0000  0.0536  0.0000  0.0179  0.0000  0.0000  0.0000  0.0000  0.0000 </r>
        <r>  0.0000  0.0536  0.0000  0.0179  0.0000  0.0000  0.0000  0.0000  0.0000 </r>
        <r>  0.0000  0.0536  0.0000  0.0179  0.0000  0.0000  0.0000  0.0000  0.0000 </r>
       </set>
       <set comment="band 26">
        <r>  0.0000  0.0000  0.0053  0.0000  0.0000  0.0000  0.0000  0.0000  0.0000 </r>
        <r>  0.0000  0.0000  0.0236  0.0000  0.0000  0.0000  0.0000  0.0000  0.0000 </r>
        <r>  0.0000  0.0000  0.0236  0.0000  0.0000  0.0000  0.0000  0.0000  0.0000 </r>
        <r>  0.0000  0.0000  0.0053  0.0000  0.0000  0.0000  0.0000  0.0000  0.0000 </r>
        <r>  0.0000  0.0000  0.0236  0.0000  0.0000  0.0000  0.0000  0.0000  0.0000 </r>
        <r>  0.0000  0.0000  0.0053  0.0000  0.0000  0.0000  0.0000  0.0000  0.0000 </r>
        <r>  0.0000  0.0000  0.0053  0.0000  0.0000  0.0000  0.0000  0.0000  0.0000 </r>
        <r>  0.0000  0.0000  0.0236  0.0000  0.0000  0.0000  0.0000  0.0000  0.0000 </r>
       </set>
       <set comment="band 27">
        <r>  0.0000  0.0000  0.0236  0.0000  0.0000  0.0000  0.0000  0.0000  0.0000 </r>
        <r>  0.0000  0.0000  0.0053  0.0000  0.0000  0.0000  0.0000  0.0000  0.0000 </r>
        <r>  0.0000  0.0000  0.0053  0.0000  0.0000  0.0000  0.0000  0.0000  0.0000 </r>
        <r>  0.0000  0.0000  0.0236  0.0000  0.0000  0.0000  0.0000  0.0000  0.0000 </r>
        <r>  0.0000  0.0000  0.0053  0.0000  0.0000  0.0000  0.0000  0.0000  0.0000 </r>
        <r>  0.0000  0.0000  0.0236  0.0000  0.0000  0.0000  0.0000  0.0000  0.0000 </r>
        <r>  0.0000  0.0000  0.0236  0.0000  0.0000  0.0000  0.0000  0.0000  0.0000 </r>
        <r>  0.0000  0.0000  0.0053  0.0000  0.0000  0.0000  0.0000  0.0000  0.0000 </r>
       </set>
       <set comment="band 28">
        <r>  0.0000  0.0000  0.0411  0.0000  0.0000  0.0000  0.0000  0.0000  0.0000 </r>
        <r>  0.0000  0.0000  0.0411  0.0000  0.0000  0.0000  0.0000  0.0000  0.0000 </r>
        <r>  0.0000  0.0000  0.0411  0.0000  0.0000  0.0000  0.0000  0.0000  0.0000 </r>
        <r>  0.0000  0.0000  0.0411  0.0000  0.0000  0.0000  0.0000  0.0000  0.0000 </r>
        <r>  0.0000  0.0000  0.0411  0.0000  0.0000  0.0000  0.0000  0.0000  0.0000 </r>
        <r>  0.0000  0.0000  0.0411  0.0000  0.0000  0.0000  0.0000  0.0000  0.0000 </r>
        <r>  0.0000  0.0000  0.0411  0.0000  0.0000  0.0000  0.0000  0.0000  0.0000 </r>
        <r>  0.0000  0.0000  0.0411  0.0000  0.0000  0.0000  0.0000  0.0000  0.0000 </r>
       </set>
       <set comment="band 29">
        <r>  0.0000  0.0000  0.0391  0.0000  0.0000  0.0000  0.0000  0.0000  0.0000 </r>
        <r>  0.0000  0.0000  0.0391  0.0000  0.0000  0.0000  0.0000  0.0000  0.0000 </r>
        <r>  0.0000  0.0000  0.0391  0.0000  0.0000  0.0000  0.0000  0.0000  0.0000 </r>
        <r>  0.0000  0.0000  0.0391  0.0000  0.0000  0.0000  0.0000  0.0000  0.0000 </r>
        <r>  0.0000  0.0000  0.0391  0.0000  0.0000  0.0000  0.0000  0.0000  0.0000 </r>
        <r>  0.0000  0.0000  0.0391  0.0000  0.0000  0.0000  0.0000  0.0000  0.0000 </r>
        <r>  0.0000  0.0000  0.0391  0.0000  0.0000  0.0000  0.0000  0.0000  0.0000 </r>
        <r>  0.0000  0.0000  0.0391  0.0000  0.0000  0.0000  0.0000  0.0000  0.0000 </r>
       </set>
       <set comment="band 30">
        <r>  0.0662  0.0063  0.0000  0.0189  0.0000  0.0000  0.0000  0.0000  0.0000 </r>
        <r>  0.0662  0.0063  0.0000  0.0189  0.0000  0.0000  0.0000  0.0000  0.0000 </r>
        <r>  0.0662  0.0063  0.0000  0.0189  0.0000  0.0000  0.0000  0.0000  0.0000 </r>
        <r>  0.0662  0.0063  0.0000  0.0189  0.0000  0.0000  0.0000  0.0000  0.0000 </r>
        <r>  0.0662  0.0063  0.0000  0.0189  0.0000  0.0000  0.0000  0.0000  0.0000 </r>
        <r>  0.0662  0.0063  0.0000  0.0189  0.0000  0.0000  0.0000  0.0000  0.0000 </r>
        <r>  0.0662  0.0063  0.0000  0.0189  0.0000  0.0000  0.0000  0.0000  0.0000 </r>
        <r>  0.0662  0.0063  0.0000  0.0189  0.0000  0.0000  0.0000  0.0000  0.0000 </r>
       </set>
       <set comment="band 31">
        <r>  0.0116  0.0054  0.0000  0.0543  0.0000  0.0000  0.0000  0.0000  0.0000 </r>
        <r>  0.0202  0.0030  0.0000  0.0700  0.0000  0.0000  0.0000  0.0000  0.0000 </r>
        <r>  0.0202  0.0456  0.0000  0.0274  0.0000  0.0000  0.0000  0.0000  0.0000 </r>
        <r>  0.0116  0.0480  0.0000  0.0117  0.0000  0.0000  0.0000  0.0000  0.0000 </r>
        <r>  0.0202  0.0456  0.0000  0.0274  0.0000  0.0000  0.0000  0.0000  0.0000 </r>
        <r>  0.0116  0.0480  0.0000  0.0117  0.0000  0.0000  0.0000  0.0000  0.0000 </r>
        <r>  0.0116  0.0054  0.0000  0.0543  0.0000  0.0000  0.0000  0.0000  0.0000 </r>
        <r>  0.0202  0.0030  0.0000  0.0700  0.0000  0.0000  0.0000  0.0000  0.0000 </r>
       </set>
       <set comment="band 32">
        <r>  0.0202  0.0487  0.0000  0.0243  0.0000  0.0000  0.0000  0.0000  0.0000 </r>
        <r>  0.0116  0.0511  0.0000  0.0086  0.0000  0.0000  0.0000  0.0000  0.0000 </r>
        <r>  0.0116  0.0085  0.0000  0.0512  0.0000  0.0000  0.0000  0.0000  0.0000 </r>
        <r>  0.0202  0.0062  0.0000  0.0669  0.0000  0.0000  0.0000  0.0000  0.0000 </r>
        <r>  0.0116  0.0085  0.0000  0.0512  0.0000  0.0000  0.0000  0.0000  0.0000 </r>
        <r>  0.0202  0.0062  0.0000  0.0669  0.0000  0.0000  0.0000  0.0000  0.0000 </r>
        <r>  0.0202  0.0487  0.0000  0.0243  0.0000  0.0000  0.0000  0.0000  0.0000 </r>
        <r>  0.0116  0.0511  0.0000  0.0086  0.0000  0.0000  0.0000  0.0000  0.0000 </r>
       </set>
       <set comment="band 33">
        <r>  0.0000  0.0619  0.0000  0.0206  0.0000  0.0000  0.0000  0.0000  0.0000 </r>
        <r>  0.0000  0.0619  0.0000  0.0206  0.0000  0.0000  0.0000  0.0000  0.0000 </r>
        <r>  0.0000  0.0619  0.0000  0.0206  0.0000  0.0000  0.0000  0.0000  0.0000 </r>
        <r>  0.0000  0.0619  0.0000  0.0206  0.0000  0.0000  0.0000  0.0000  0.0000 </r>
        <r>  0.0000  0.0619  0.0000  0.0206  0.0000  0.0000  0.0000  0.0000  0.0000 </r>
        <r>  0.0000  0.0619  0.0000  0.0206  0.0000  0.0000  0.0000  0.0000  0.0000 </r>
        <r>  0.0000  0.0619  0.0000  0.0206  0.0000  0.0000  0.0000  0.0000  0.0000 </r>
        <r>  0.0000  0.0619  0.0000  0.0206  0.0000  0.0000  0.0000  0.0000  0.0000 </r>
       </set>
       <set comment="band 34">
        <r>  0.0268  0.0147  0.0000  0.0442  0.0000  0.0000  0.0000  0.0000  0.0000 </r>
        <r>  0.0268  0.0147  0.0000  0.0442  0.0000  0.0000  0.0000  0.0000  0.0000 </r>
        <r>  0.0268  0.0147  0.0000  0.0442  0.0000  0.0000  0.0000  0.0000  0.0000 </r>
        <r>  0.0268  0.0147  0.0000  0.0442  0.0000  0.0000  0.0000  0.0000  0.0000 </r>
        <r>  0.0268  0.0147  0.0000  0.0442  0.0000  0.0000  0.0000  0.0000  0.0000 </r>
        <r>  0.0268  0.0147  0.0000  0.0442  0.0000  0.0000  0.0000  0.0000  0.0000 </r>
        <r>  0.0268  0.0147  0.0000  0.0442  0.0000  0.0000  0.0000  0.0000  0.0000 </r>
        <r>  0.0268  0.0147  0.0000  0.0442  0.0000  0.0000  0.0000  0.0000  0.0000 </r>
       </set>
       <set comment="band 35">
        <r>  0.0000  0.0000  0.0491  0.0000  0.0000  0.0000  0.0000  0.0000  0.0000 </r>
        <r>  0.0000  0.0000  0.0126  0.0000  0.0000  0.0000  0.0000  0.0000  0.0000 </r>
        <r>  0.0000  0.0000  0.0126  0.0000  0.0000  0.0000  0.0000  0.0000  0.0000 </r>
        <r>  0.0000  0.0000  0.0491  0.0000  0.0000  0.0000  0.0000  0.0000  0.0000 </r>
        <r>  0.0000  0.0000  0.0126  0.0000  0.0000  0.0000  0.0000  0.0000  0.0000 </r>
        <r>  0.0000  0.0000  0.0491  0.0000  0.0000  0.0000  0.0000  0.0000  0.0000 </r>
        <r>  0.0000  0.0000  0.0491  0.0000  0.0000  0.0000  0.0000  0.0000  0.0000 </r>
        <r>  0.0000  0.0000  0.0126  0.0000  0.0000  0.0000  0.0000  0.0000  0.0000 </r>
       </set>
       <set comment="band 36">
        <r>  0.0000  0.0000  0.0126  0.0000  0.0000  0.0000  0.0000  0.0000  0.0000 </r>
        <r>  0.0000  0.0000  0.0491  0.0000  0.0000  0.0000  0.0000  0.0000  0.0000 </r>
        <r>  0.0000  0.0000  0.0491  0.0000  0.0000  0.0000  0.0000  0.0000  0.0000 </r>
        <r>  0.0000  0.0000  0.0126  0.0000  0.0000  0.0000  0.0000  0.0000  0.0000 </r>
        <r>  0.0000  0.0000  0.0491  0.0000  0.0000  0.0000  0.0000  0.0000  0.0000 </r>
        <r>  0.0000  0.0000  0.0126  0.0000  0.0000  0.0000  0.0000  0.0000  0.0000 </r>
        <r>  0.0000  0.0000  0.0126  0.0000  0.0000  0.0000  0.0000  0.0000  0.0000 </r>
        <r>  0.0000  0.0000  0.0491  0.0000  0.0000  0.0000  0.0000  0.0000  0.0000 </r>
       </set>
       <set comment="band 37">
        <r>  0.0000  0.0000  0.0232  0.0000  0.0000  0.0000  0.0000  0.0000  0.0000 </r>
        <r>  0.0000  0.0000  0.0232  0.0000  0.0000  0.0000  0.0000  0.0000  0.0000 </r>
        <r>  0.0000  0.0000  0.0232  0.0000  0.0000  0.0000  0.0000  0.0000  0.0000 </r>
        <r>  0.0000  0.0000  0.0232  0.0000  0.0000  0.0000  0.0000  0.0000  0.0000 </r>
        <r>  0.0000  0.0000  0.0232  0.0000  0.0000  0.0000  0.0000  0.0000  0.0000 </r>
        <r>  0.0000  0.0000  0.0232  0.0000  0.0000  0.0000  0.0000  0.0000  0.0000 </r>
        <r>  0.0000  0.0000  0.0232  0.0000  0.0000  0.0000  0.0000  0.0000  0.0000 </r>
        <r>  0.0000  0.0000  0.0232  0.0000  0.0000  0.0000  0.0000  0.0000  0.0000 </r>
       </set>
       <set comment="band 38">
        <r>  0.0000  0.0000  0.0000  0.0000  0.0000  0.0000  0.0000  0.0000  0.0000 </r>
        <r>  0.0000  0.0000  0.0000  0.0000  0.0000  0.0000  0.0000  0.0000  0.0000 </r>
        <r>  0.0000  0.0000  0.0000  0.0000  0.0000  0.0000  0.0000  0.0000  0.0000 </r>
        <r>  0.0000  0.0000  0.0000  0.0000  0.0000  0.0000  0.0000  0.0000  0.0000 </r>
        <r>  0.0000  0.0000  0.0000  0.0000  0.0000  0.0000  0.0000  0.0000  0.0000 </r>
        <r>  0.0000  0.0000  0.0000  0.0000  0.0000  0.0000  0.0000  0.0000  0.0000 </r>
        <r>  0.0000  0.0000  0.0000  0.0000  0.0000  0.0000  0.0000  0.0000  0.0000 </r>
        <r>  0.0000  0.0000  0.0000  0.0000  0.0000  0.0000  0.0000  0.0000  0.0000 </r>
       </set>
       <set comment="band 39">
        <r>  0.0013  0.0124  0.0000  0.0046  0.0000  0.0000  0.0000  0.0000  0.0000 </r>
        <r>  0.0001  0.0482  0.0000  0.0207  0.0000  0.0000  0.0000  0.0000  0.0000 </r>
        <r>  0.0009  0.0480  0.0000  0.0228  0.0000  0.0000  0.0000  0.0000  0.0000 </r>
        <r>  0.0027  0.0118  0.0000  0.0068  0.0000  0.0000  0.0000  0.0000  0.0000 </r>
        <r>  0.0004  0.0547  0.0000  0.0155  0.0000  0.0000  0.0000  0.0000  0.0000 </r>
        <r>  0.0001  0.0123  0.0000  0.0059  0.0000  0.0000  0.0000  0.0000  0.0000 </r>
        <r>  0.0018  0.0113  0.0000  0.0061  0.0000  0.0000  0.0000  0.0000  0.0000 </r>
        <r>  0.0016  0.0530  0.0000  0.0158  0.0000  0.0000  0.0000  0.0000  0.0000 </r>
       </set>
       <set comment="band 40">
        <r>  0.0002  0.0553  0.0000  0.0170  0.0000  0.0000  0.0000  0.0000  0.0000 </r>
        <r>  0.0009  0.0147  0.0000  0.0036  0.0000  0.0000  0.0000  0.0000  0.0000 </r>
        <r>  0.0009  0.0154  0.0000  0.0030  0.0000  0.0000  0.0000  0.0000  0.0000 </r>
        <r>  0.0002  0.0561  0.0000  0.0165  0.0000  0.0000  0.0000  0.0000  0.0000 </r>
        <r>  0.0009  0.0153  0.0000  0.0031  0.0000  0.0000  0.0000  0.0000  0.0000 </r>
        <r>  0.0002  0.0560  0.0000  0.0166  0.0000  0.0000  0.0000  0.0000  0.0000 </r>
        <r>  0.0002  0.0553  0.0000  0.0170  0.0000  0.0000  0.0000  0.0000  0.0000 </r>
        <r>  0.0009  0.0147  0.0000  0.0036  0.0000  0.0000  0.0000  0.0000  0.0000 </r>
       </set>
      </set>
     </set>
    </set>
   </array>
  </projected>
 </calculation>
 <structure name="finalpos" >
  <crystal>
   <varray name="basis" >
    <v>       4.91653297       0.01866697       0.00000000 </v>
    <v>      -2.44210041       4.26717593       0.00000000 </v>
    <v>       0.00000000       0.00000000       3.20240543 </v>
   </varray>
   <i name="volume">     67.33152776 </i>
   <varray name="rec_basis" >
    <v>       0.20295436       0.11615057       0.00000000 </v>
    <v>      -0.00088783       0.23383892       0.00000000 </v>
    <v>       0.00000000       0.00000000       0.31226527 </v>
   </varray>
  </crystal>
  <varray name="positions" >
   <v>       0.99953813       0.00046187       0.07317000 </v>
   <v>       0.33379187       0.16620813       0.07317000 </v>
   <v>       0.49953813       0.00046187       0.07317000 </v>
   <v>       0.83379185       0.16620813       0.07317000 </v>
   <v>       0.99953813       0.50046187       0.07317000 </v>
   <v>       0.33379187       0.66620815       0.07317000 </v>
   <v>       0.49953813       0.50046187       0.07317000 </v>
   <v>       0.83379185       0.66620815       0.07317000 </v>
  </varray>
 </structure>
</modeling>
