<?xml version="1.0" encoding="ISO-8859-1"?>
<modeling>
 <generator>
  <i name="program" type="string">vasp </i>
  <i name="version" type="string">5.2.11  </i>
  <i name="subversion" type="string">25Nov10 complex  parallel </i>
  <i name="platform" type="string">LinuxIFC </i>
  <i name="date" type="string">2018 12 15 </i>
  <i name="time" type="string">13:01:57 </i>
 </generator>
 <incar>
  <i type="string" name="SYSTEM"> NAME</i>
  <i type="int" name="ISTART">     0</i>
  <i type="string" name="PREC">medium</i>
  <i type="int" name="ICHARG">     2</i>
  <i type="int" name="NELM">   100</i>
  <i type="int" name="NELMDL">    -5</i>
  <i type="int" name="NELMIN">     5</i>
  <i type="int" name="IBRION">    -1</i>
  <i name="EDIFF">      0.00010000</i>
  <i type="int" name="NSW">     0</i>
  <i type="int" name="ISIF">     2</i>
  <i name="ENCUT">    500.00000000</i>
  <i type="int" name="NEDOS">  1000</i>
  <i type="int" name="ISMEAR">    -5</i>
  <i type="logical" name="LORBIT"> F  </i>
  <i type="int" name="NELM">   100</i>
  <i type="logical" name="LPEAD"> F  </i>
  <i type="logical" name="LCALCPOL"> F  </i>
  <i type="logical" name="LCALCEPS"> F  </i>
  <v name="EFIELD_PEAD">      0.00000000      0.00000000      0.00000000</v>
  <i type="logical" name="LEFG"> F  </i>
  <i type="logical" name="LRHFATM"> F  </i>
  <i type="string" name="METAGGA">--</i>
  <i type="int" name="LMAXTAU">     0</i>
 </incar>
 <kpoints>
  <generation param="Gamma">
   <v type="int" name="divisions">      16       16        1 </v>
   <v name="usershift">      0.00000000       0.00000000       0.00000000 </v>
   <v name="genvec1">      0.06250000       0.00000000       0.00000000 </v>
   <v name="genvec2">     -0.00000000       0.06250000       0.00000000 </v>
   <v name="genvec3">      0.00000000       0.00000000       1.00000000 </v>
   <v name="shift">      0.00000000       0.00000000       0.00000000 </v>
  </generation>
  <varray name="kpointlist" >
   <v>       0.00000000       0.00000000       0.00000000 </v>
   <v>       0.06250000       0.00000000       0.00000000 </v>
   <v>       0.12500000       0.00000000       0.00000000 </v>
   <v>       0.18750000       0.00000000       0.00000000 </v>
   <v>       0.25000000       0.00000000       0.00000000 </v>
   <v>       0.31250000       0.00000000       0.00000000 </v>
   <v>       0.37500000       0.00000000       0.00000000 </v>
   <v>       0.43750000       0.00000000       0.00000000 </v>
   <v>       0.50000000       0.00000000       0.00000000 </v>
   <v>       0.06250000       0.06250000       0.00000000 </v>
   <v>       0.12500000       0.06250000       0.00000000 </v>
   <v>       0.18750000       0.06250000       0.00000000 </v>
   <v>       0.25000000       0.06250000       0.00000000 </v>
   <v>       0.31250000       0.06250000       0.00000000 </v>
   <v>       0.37500000       0.06250000       0.00000000 </v>
   <v>       0.43750000       0.06250000       0.00000000 </v>
   <v>       0.50000000       0.06250000       0.00000000 </v>
   <v>      -0.43750000       0.06250000       0.00000000 </v>
   <v>      -0.37500000       0.06250000       0.00000000 </v>
   <v>      -0.31250000       0.06250000       0.00000000 </v>
   <v>      -0.25000000       0.06250000       0.00000000 </v>
   <v>      -0.18750000       0.06250000       0.00000000 </v>
   <v>      -0.12500000       0.06250000       0.00000000 </v>
   <v>      -0.06250000       0.06250000       0.00000000 </v>
   <v>       0.12500000       0.12500000       0.00000000 </v>
   <v>       0.18750000       0.12500000       0.00000000 </v>
   <v>       0.25000000       0.12500000       0.00000000 </v>
   <v>       0.31250000       0.12500000       0.00000000 </v>
   <v>       0.37500000       0.12500000       0.00000000 </v>
   <v>       0.43750000       0.12500000       0.00000000 </v>
   <v>       0.50000000       0.12500000       0.00000000 </v>
   <v>      -0.43750000       0.12500000       0.00000000 </v>
   <v>      -0.37500000       0.12500000       0.00000000 </v>
   <v>      -0.31250000       0.12500000       0.00000000 </v>
   <v>      -0.25000000       0.12500000       0.00000000 </v>
   <v>      -0.18750000       0.12500000       0.00000000 </v>
   <v>      -0.12500000       0.12500000       0.00000000 </v>
   <v>       0.18750000       0.18750000       0.00000000 </v>
   <v>       0.25000000       0.18750000       0.00000000 </v>
   <v>       0.31250000       0.18750000       0.00000000 </v>
   <v>       0.37500000       0.18750000       0.00000000 </v>
   <v>       0.43750000       0.18750000       0.00000000 </v>
   <v>       0.50000000       0.18750000       0.00000000 </v>
   <v>      -0.43750000       0.18750000       0.00000000 </v>
   <v>      -0.37500000       0.18750000       0.00000000 </v>
   <v>      -0.31250000       0.18750000       0.00000000 </v>
   <v>      -0.25000000       0.18750000       0.00000000 </v>
   <v>      -0.18750000       0.18750000       0.00000000 </v>
   <v>       0.25000000       0.25000000       0.00000000 </v>
   <v>       0.31250000       0.25000000       0.00000000 </v>
   <v>       0.37500000       0.25000000       0.00000000 </v>
   <v>       0.43750000       0.25000000       0.00000000 </v>
   <v>       0.50000000       0.25000000       0.00000000 </v>
   <v>      -0.43750000       0.25000000       0.00000000 </v>
   <v>      -0.37500000       0.25000000       0.00000000 </v>
   <v>      -0.31250000       0.25000000       0.00000000 </v>
   <v>      -0.25000000       0.25000000       0.00000000 </v>
   <v>       0.31250000       0.31250000       0.00000000 </v>
   <v>       0.37500000       0.31250000       0.00000000 </v>
   <v>       0.43750000       0.31250000       0.00000000 </v>
   <v>       0.50000000       0.31250000       0.00000000 </v>
   <v>      -0.43750000       0.31250000       0.00000000 </v>
   <v>      -0.37500000       0.31250000       0.00000000 </v>
   <v>      -0.31250000       0.31250000       0.00000000 </v>
   <v>       0.37500000       0.37500000       0.00000000 </v>
   <v>       0.43750000       0.37500000       0.00000000 </v>
   <v>       0.50000000       0.37500000       0.00000000 </v>
   <v>      -0.43750000       0.37500000       0.00000000 </v>
   <v>      -0.37500000       0.37500000       0.00000000 </v>
   <v>       0.43750000       0.43750000       0.00000000 </v>
   <v>       0.50000000       0.43750000       0.00000000 </v>
   <v>      -0.43750000       0.43750000       0.00000000 </v>
   <v>       0.50000000       0.50000000       0.00000000 </v>
  </varray>
  <varray name="weights" >
   <v>       0.00390625 </v>
   <v>       0.01562500 </v>
   <v>       0.01562500 </v>
   <v>       0.01562500 </v>
   <v>       0.01562500 </v>
   <v>       0.01562500 </v>
   <v>       0.01562500 </v>
   <v>       0.01562500 </v>
   <v>       0.00781250 </v>
   <v>       0.00781250 </v>
   <v>       0.01562500 </v>
   <v>       0.01562500 </v>
   <v>       0.01562500 </v>
   <v>       0.01562500 </v>
   <v>       0.01562500 </v>
   <v>       0.01562500 </v>
   <v>       0.01562500 </v>
   <v>       0.01562500 </v>
   <v>       0.01562500 </v>
   <v>       0.01562500 </v>
   <v>       0.01562500 </v>
   <v>       0.01562500 </v>
   <v>       0.01562500 </v>
   <v>       0.00781250 </v>
   <v>       0.00781250 </v>
   <v>       0.01562500 </v>
   <v>       0.01562500 </v>
   <v>       0.01562500 </v>
   <v>       0.01562500 </v>
   <v>       0.01562500 </v>
   <v>       0.01562500 </v>
   <v>       0.01562500 </v>
   <v>       0.01562500 </v>
   <v>       0.01562500 </v>
   <v>       0.01562500 </v>
   <v>       0.01562500 </v>
   <v>       0.00781250 </v>
   <v>       0.00781250 </v>
   <v>       0.01562500 </v>
   <v>       0.01562500 </v>
   <v>       0.01562500 </v>
   <v>       0.01562500 </v>
   <v>       0.01562500 </v>
   <v>       0.01562500 </v>
   <v>       0.01562500 </v>
   <v>       0.01562500 </v>
   <v>       0.01562500 </v>
   <v>       0.00781250 </v>
   <v>       0.00781250 </v>
   <v>       0.01562500 </v>
   <v>       0.01562500 </v>
   <v>       0.01562500 </v>
   <v>       0.01562500 </v>
   <v>       0.01562500 </v>
   <v>       0.01562500 </v>
   <v>       0.01562500 </v>
   <v>       0.00781250 </v>
   <v>       0.00781250 </v>
   <v>       0.01562500 </v>
   <v>       0.01562500 </v>
   <v>       0.01562500 </v>
   <v>       0.01562500 </v>
   <v>       0.01562500 </v>
   <v>       0.00781250 </v>
   <v>       0.00781250 </v>
   <v>       0.01562500 </v>
   <v>       0.01562500 </v>
   <v>       0.01562500 </v>
   <v>       0.00781250 </v>
   <v>       0.00781250 </v>
   <v>       0.01562500 </v>
   <v>       0.00781250 </v>
   <v>       0.00390625 </v>
  </varray>
  <varray name="tetrahedronlist"  type="int" >
   <v type="int" >        4        2        2        2       10 </v>
   <v type="int" >        4        1        2        2        2 </v>
   <v type="int" >        2        1        1        2        2 </v>
   <v type="int" >        2        2        2       10       10 </v>
   <v type="int" >        4        3       10       10       11 </v>
   <v type="int" >        4        2        3       10       10 </v>
   <v type="int" >        4        2        2        3       10 </v>
   <v type="int" >        4        3       10       11       11 </v>
   <v type="int" >        4        3        3       10       11 </v>
   <v type="int" >        4        2        3        3       10 </v>
   <v type="int" >        4        4       11       11       12 </v>
   <v type="int" >        4        3        4       11       11 </v>
   <v type="int" >        4        3        3        4       11 </v>
   <v type="int" >        4        4       11       12       12 </v>
   <v type="int" >        4        4        4       11       12 </v>
   <v type="int" >        4        3        4        4       11 </v>
   <v type="int" >        4        5       12       12       13 </v>
   <v type="int" >        4        4        5       12       12 </v>
   <v type="int" >        4        4        4        5       12 </v>
   <v type="int" >        4        5       12       13       13 </v>
   <v type="int" >        4        5        5       12       13 </v>
   <v type="int" >        4        4        5        5       12 </v>
   <v type="int" >        4        6       13       13       14 </v>
   <v type="int" >        4        5        6       13       13 </v>
   <v type="int" >        4        5        5        6       13 </v>
   <v type="int" >        4        6       13       14       14 </v>
   <v type="int" >        4        6        6       13       14 </v>
   <v type="int" >        4        5        6        6       13 </v>
   <v type="int" >        4        7       14       14       15 </v>
   <v type="int" >        4        6        7       14       14 </v>
   <v type="int" >        4        6        6        7       14 </v>
   <v type="int" >        4        7       14       15       15 </v>
   <v type="int" >        4        7        7       14       15 </v>
   <v type="int" >        4        6        7        7       14 </v>
   <v type="int" >        4        8       15       15       16 </v>
   <v type="int" >        4        7        8       15       15 </v>
   <v type="int" >        4        7        7        8       15 </v>
   <v type="int" >        4        8       15       16       16 </v>
   <v type="int" >        4        8        8       15       16 </v>
   <v type="int" >        4        7        8        8       15 </v>
   <v type="int" >        4        9       16       16       17 </v>
   <v type="int" >        4        8        9       16       16 </v>
   <v type="int" >        4        8        8        9       16 </v>
   <v type="int" >        4        9       16       17       17 </v>
   <v type="int" >        4        9        9       16       17 </v>
   <v type="int" >        4        8        9        9       16 </v>
   <v type="int" >        4        8       17       17       18 </v>
   <v type="int" >        4        8        9       17       17 </v>
   <v type="int" >        4        8        9        9       17 </v>
   <v type="int" >        4        8       17       18       18 </v>
   <v type="int" >        4        8        8       17       18 </v>
   <v type="int" >        4        8        8        9       17 </v>
   <v type="int" >        4        7       18       18       19 </v>
   <v type="int" >        4        7        8       18       18 </v>
   <v type="int" >        4        7        8        8       18 </v>
   <v type="int" >        4        7       18       19       19 </v>
   <v type="int" >        4        7        7       18       19 </v>
   <v type="int" >        4        7        7        8       18 </v>
   <v type="int" >        4        6       19       19       20 </v>
   <v type="int" >        4        6        7       19       19 </v>
   <v type="int" >        4        6        7        7       19 </v>
   <v type="int" >        4        6       19       20       20 </v>
   <v type="int" >        4        6        6       19       20 </v>
   <v type="int" >        4        6        6        7       19 </v>
   <v type="int" >        4        5       20       20       21 </v>
   <v type="int" >        4        5        6       20       20 </v>
   <v type="int" >        4        5        6        6       20 </v>
   <v type="int" >        4        5       20       21       21 </v>
   <v type="int" >        4        5        5       20       21 </v>
   <v type="int" >        4        5        5        6       20 </v>
   <v type="int" >        4        4       21       21       22 </v>
   <v type="int" >        4        4        5       21       21 </v>
   <v type="int" >        4        4        5        5       21 </v>
   <v type="int" >        4        4       21       22       22 </v>
   <v type="int" >        4        4        4       21       22 </v>
   <v type="int" >        4        4        4        5       21 </v>
   <v type="int" >        4        3       22       22       23 </v>
   <v type="int" >        4        3        4       22       22 </v>
   <v type="int" >        4        3        4        4       22 </v>
   <v type="int" >        4        3       22       23       23 </v>
   <v type="int" >        4        3        3       22       23 </v>
   <v type="int" >        4        3        3        4       22 </v>
   <v type="int" >        4        2       23       23       24 </v>
   <v type="int" >        4        2        3       23       23 </v>
   <v type="int" >        4        2        3        3       23 </v>
   <v type="int" >        4        2       23       24       24 </v>
   <v type="int" >        4        2        2       23       24 </v>
   <v type="int" >        4        2        2        3       23 </v>
   <v type="int" >        4        1        2       24       24 </v>
   <v type="int" >        4        1        2        2       24 </v>
   <v type="int" >        4        1        1        2       24 </v>
   <v type="int" >        4       11       11       11       25 </v>
   <v type="int" >        4       10       11       11       11 </v>
   <v type="int" >        2       10       10       11       11 </v>
   <v type="int" >        2       11       11       25       25 </v>
   <v type="int" >        4       12       25       25       26 </v>
   <v type="int" >        4       11       12       25       25 </v>
   <v type="int" >        4       11       11       12       25 </v>
   <v type="int" >        4       12       25       26       26 </v>
   <v type="int" >        4       12       12       25       26 </v>
   <v type="int" >        4       11       12       12       25 </v>
   <v type="int" >        4       13       26       26       27 </v>
   <v type="int" >        4       12       13       26       26 </v>
   <v type="int" >        4       12       12       13       26 </v>
   <v type="int" >        4       13       26       27       27 </v>
   <v type="int" >        4       13       13       26       27 </v>
   <v type="int" >        4       12       13       13       26 </v>
   <v type="int" >        4       14       27       27       28 </v>
   <v type="int" >        4       13       14       27       27 </v>
   <v type="int" >        4       13       13       14       27 </v>
   <v type="int" >        4       14       27       28       28 </v>
   <v type="int" >        4       14       14       27       28 </v>
   <v type="int" >        4       13       14       14       27 </v>
   <v type="int" >        4       15       28       28       29 </v>
   <v type="int" >        4       14       15       28       28 </v>
   <v type="int" >        4       14       14       15       28 </v>
   <v type="int" >        4       15       28       29       29 </v>
   <v type="int" >        4       15       15       28       29 </v>
   <v type="int" >        4       14       15       15       28 </v>
   <v type="int" >        4       16       29       29       30 </v>
   <v type="int" >        4       15       16       29       29 </v>
   <v type="int" >        4       15       15       16       29 </v>
   <v type="int" >        4       16       29       30       30 </v>
   <v type="int" >        4       16       16       29       30 </v>
   <v type="int" >        4       15       16       16       29 </v>
   <v type="int" >        4       17       30       30       31 </v>
   <v type="int" >        4       16       17       30       30 </v>
   <v type="int" >        4       16       16       17       30 </v>
   <v type="int" >        4       17       30       31       31 </v>
   <v type="int" >        4       17       17       30       31 </v>
   <v type="int" >        4       16       17       17       30 </v>
   <v type="int" >        4       18       31       31       32 </v>
   <v type="int" >        4       17       18       31       31 </v>
   <v type="int" >        4       17       17       18       31 </v>
   <v type="int" >        4       18       31       32       32 </v>
   <v type="int" >        4       18       18       31       32 </v>
   <v type="int" >        4       17       18       18       31 </v>
   <v type="int" >        4       19       32       32       33 </v>
   <v type="int" >        4       18       19       32       32 </v>
   <v type="int" >        4       18       18       19       32 </v>
   <v type="int" >        4       19       32       33       33 </v>
   <v type="int" >        4       19       19       32       33 </v>
   <v type="int" >        4       18       19       19       32 </v>
   <v type="int" >        4       20       33       33       34 </v>
   <v type="int" >        4       19       20       33       33 </v>
   <v type="int" >        4       19       19       20       33 </v>
   <v type="int" >        4       20       33       34       34 </v>
   <v type="int" >        4       20       20       33       34 </v>
   <v type="int" >        4       19       20       20       33 </v>
   <v type="int" >        4       21       34       34       35 </v>
   <v type="int" >        4       20       21       34       34 </v>
   <v type="int" >        4       20       20       21       34 </v>
   <v type="int" >        4       21       34       35       35 </v>
   <v type="int" >        4       21       21       34       35 </v>
   <v type="int" >        4       20       21       21       34 </v>
   <v type="int" >        4       22       35       35       36 </v>
   <v type="int" >        4       21       22       35       35 </v>
   <v type="int" >        4       21       21       22       35 </v>
   <v type="int" >        4       22       35       36       36 </v>
   <v type="int" >        4       22       22       35       36 </v>
   <v type="int" >        4       21       22       22       35 </v>
   <v type="int" >        4       23       36       36       37 </v>
   <v type="int" >        4       22       23       36       36 </v>
   <v type="int" >        4       22       22       23       36 </v>
   <v type="int" >        4       23       36       37       37 </v>
   <v type="int" >        4       23       23       36       37 </v>
   <v type="int" >        4       22       23       23       36 </v>
   <v type="int" >        4       23       24       37       37 </v>
   <v type="int" >        4       23       23       24       37 </v>
   <v type="int" >        4       23       24       24       37 </v>
   <v type="int" >        4       26       26       26       38 </v>
   <v type="int" >        4       25       26       26       26 </v>
   <v type="int" >        2       25       25       26       26 </v>
   <v type="int" >        2       26       26       38       38 </v>
   <v type="int" >        4       27       38       38       39 </v>
   <v type="int" >        4       26       27       38       38 </v>
   <v type="int" >        4       26       26       27       38 </v>
   <v type="int" >        4       27       38       39       39 </v>
   <v type="int" >        4       27       27       38       39 </v>
   <v type="int" >        4       26       27       27       38 </v>
   <v type="int" >        4       28       39       39       40 </v>
   <v type="int" >        4       27       28       39       39 </v>
   <v type="int" >        4       27       27       28       39 </v>
   <v type="int" >        4       28       39       40       40 </v>
   <v type="int" >        4       28       28       39       40 </v>
   <v type="int" >        4       27       28       28       39 </v>
   <v type="int" >        4       29       40       40       41 </v>
   <v type="int" >        4       28       29       40       40 </v>
   <v type="int" >        4       28       28       29       40 </v>
   <v type="int" >        4       29       40       41       41 </v>
   <v type="int" >        4       29       29       40       41 </v>
   <v type="int" >        4       28       29       29       40 </v>
   <v type="int" >        4       30       41       41       42 </v>
   <v type="int" >        4       29       30       41       41 </v>
   <v type="int" >        4       29       29       30       41 </v>
   <v type="int" >        4       30       41       42       42 </v>
   <v type="int" >        4       30       30       41       42 </v>
   <v type="int" >        4       29       30       30       41 </v>
   <v type="int" >        4       31       42       42       43 </v>
   <v type="int" >        4       30       31       42       42 </v>
   <v type="int" >        4       30       30       31       42 </v>
   <v type="int" >        4       31       42       43       43 </v>
   <v type="int" >        4       31       31       42       43 </v>
   <v type="int" >        4       30       31       31       42 </v>
   <v type="int" >        4       32       43       43       44 </v>
   <v type="int" >        4       31       32       43       43 </v>
   <v type="int" >        4       31       31       32       43 </v>
   <v type="int" >        4       32       43       44       44 </v>
   <v type="int" >        4       32       32       43       44 </v>
   <v type="int" >        4       31       32       32       43 </v>
   <v type="int" >        4       33       44       44       45 </v>
   <v type="int" >        4       32       33       44       44 </v>
   <v type="int" >        4       32       32       33       44 </v>
   <v type="int" >        4       33       44       45       45 </v>
   <v type="int" >        4       33       33       44       45 </v>
   <v type="int" >        4       32       33       33       44 </v>
   <v type="int" >        4       34       45       45       46 </v>
   <v type="int" >        4       33       34       45       45 </v>
   <v type="int" >        4       33       33       34       45 </v>
   <v type="int" >        4       34       45       46       46 </v>
   <v type="int" >        4       34       34       45       46 </v>
   <v type="int" >        4       33       34       34       45 </v>
   <v type="int" >        4       35       46       46       47 </v>
   <v type="int" >        4       34       35       46       46 </v>
   <v type="int" >        4       34       34       35       46 </v>
   <v type="int" >        4       35       46       47       47 </v>
   <v type="int" >        4       35       35       46       47 </v>
   <v type="int" >        4       34       35       35       46 </v>
   <v type="int" >        4       36       47       47       48 </v>
   <v type="int" >        4       35       36       47       47 </v>
   <v type="int" >        4       35       35       36       47 </v>
   <v type="int" >        4       36       47       48       48 </v>
   <v type="int" >        4       36       36       47       48 </v>
   <v type="int" >        4       35       36       36       47 </v>
   <v type="int" >        4       36       37       48       48 </v>
   <v type="int" >        4       36       36       37       48 </v>
   <v type="int" >        4       36       37       37       48 </v>
   <v type="int" >        4       39       39       39       49 </v>
   <v type="int" >        4       38       39       39       39 </v>
   <v type="int" >        2       38       38       39       39 </v>
   <v type="int" >        2       39       39       49       49 </v>
   <v type="int" >        4       40       49       49       50 </v>
   <v type="int" >        4       39       40       49       49 </v>
   <v type="int" >        4       39       39       40       49 </v>
   <v type="int" >        4       40       49       50       50 </v>
   <v type="int" >        4       40       40       49       50 </v>
   <v type="int" >        4       39       40       40       49 </v>
   <v type="int" >        4       41       50       50       51 </v>
   <v type="int" >        4       40       41       50       50 </v>
   <v type="int" >        4       40       40       41       50 </v>
   <v type="int" >        4       41       50       51       51 </v>
   <v type="int" >        4       41       41       50       51 </v>
   <v type="int" >        4       40       41       41       50 </v>
   <v type="int" >        4       42       51       51       52 </v>
   <v type="int" >        4       41       42       51       51 </v>
   <v type="int" >        4       41       41       42       51 </v>
   <v type="int" >        4       42       51       52       52 </v>
   <v type="int" >        4       42       42       51       52 </v>
   <v type="int" >        4       41       42       42       51 </v>
   <v type="int" >        4       43       52       52       53 </v>
   <v type="int" >        4       42       43       52       52 </v>
   <v type="int" >        4       42       42       43       52 </v>
   <v type="int" >        4       43       52       53       53 </v>
   <v type="int" >        4       43       43       52       53 </v>
   <v type="int" >        4       42       43       43       52 </v>
   <v type="int" >        4       44       53       53       54 </v>
   <v type="int" >        4       43       44       53       53 </v>
   <v type="int" >        4       43       43       44       53 </v>
   <v type="int" >        4       44       53       54       54 </v>
   <v type="int" >        4       44       44       53       54 </v>
   <v type="int" >        4       43       44       44       53 </v>
   <v type="int" >        4       45       54       54       55 </v>
   <v type="int" >        4       44       45       54       54 </v>
   <v type="int" >        4       44       44       45       54 </v>
   <v type="int" >        4       45       54       55       55 </v>
   <v type="int" >        4       45       45       54       55 </v>
   <v type="int" >        4       44       45       45       54 </v>
   <v type="int" >        4       46       55       55       56 </v>
   <v type="int" >        4       45       46       55       55 </v>
   <v type="int" >        4       45       45       46       55 </v>
   <v type="int" >        4       46       55       56       56 </v>
   <v type="int" >        4       46       46       55       56 </v>
   <v type="int" >        4       45       46       46       55 </v>
   <v type="int" >        4       47       56       56       57 </v>
   <v type="int" >        4       46       47       56       56 </v>
   <v type="int" >        4       46       46       47       56 </v>
   <v type="int" >        4       47       56       57       57 </v>
   <v type="int" >        4       47       47       56       57 </v>
   <v type="int" >        4       46       47       47       56 </v>
   <v type="int" >        4       47       48       57       57 </v>
   <v type="int" >        4       47       47       48       57 </v>
   <v type="int" >        4       47       48       48       57 </v>
   <v type="int" >        4       50       50       50       58 </v>
   <v type="int" >        4       49       50       50       50 </v>
   <v type="int" >        2       49       49       50       50 </v>
   <v type="int" >        2       50       50       58       58 </v>
   <v type="int" >        4       51       58       58       59 </v>
   <v type="int" >        4       50       51       58       58 </v>
   <v type="int" >        4       50       50       51       58 </v>
   <v type="int" >        4       51       58       59       59 </v>
   <v type="int" >        4       51       51       58       59 </v>
   <v type="int" >        4       50       51       51       58 </v>
   <v type="int" >        4       52       59       59       60 </v>
   <v type="int" >        4       51       52       59       59 </v>
   <v type="int" >        4       51       51       52       59 </v>
   <v type="int" >        4       52       59       60       60 </v>
   <v type="int" >        4       52       52       59       60 </v>
   <v type="int" >        4       51       52       52       59 </v>
   <v type="int" >        4       53       60       60       61 </v>
   <v type="int" >        4       52       53       60       60 </v>
   <v type="int" >        4       52       52       53       60 </v>
   <v type="int" >        4       53       60       61       61 </v>
   <v type="int" >        4       53       53       60       61 </v>
   <v type="int" >        4       52       53       53       60 </v>
   <v type="int" >        4       54       61       61       62 </v>
   <v type="int" >        4       53       54       61       61 </v>
   <v type="int" >        4       53       53       54       61 </v>
   <v type="int" >        4       54       61       62       62 </v>
   <v type="int" >        4       54       54       61       62 </v>
   <v type="int" >        4       53       54       54       61 </v>
   <v type="int" >        4       55       62       62       63 </v>
   <v type="int" >        4       54       55       62       62 </v>
   <v type="int" >        4       54       54       55       62 </v>
   <v type="int" >        4       55       62       63       63 </v>
   <v type="int" >        4       55       55       62       63 </v>
   <v type="int" >        4       54       55       55       62 </v>
   <v type="int" >        4       56       63       63       64 </v>
   <v type="int" >        4       55       56       63       63 </v>
   <v type="int" >        4       55       55       56       63 </v>
   <v type="int" >        4       56       63       64       64 </v>
   <v type="int" >        4       56       56       63       64 </v>
   <v type="int" >        4       55       56       56       63 </v>
   <v type="int" >        4       56       57       64       64 </v>
   <v type="int" >        4       56       56       57       64 </v>
   <v type="int" >        4       56       57       57       64 </v>
   <v type="int" >        4       59       59       59       65 </v>
   <v type="int" >        4       58       59       59       59 </v>
   <v type="int" >        2       58       58       59       59 </v>
   <v type="int" >        2       59       59       65       65 </v>
   <v type="int" >        4       60       65       65       66 </v>
   <v type="int" >        4       59       60       65       65 </v>
   <v type="int" >        4       59       59       60       65 </v>
   <v type="int" >        4       60       65       66       66 </v>
   <v type="int" >        4       60       60       65       66 </v>
   <v type="int" >        4       59       60       60       65 </v>
   <v type="int" >        4       61       66       66       67 </v>
   <v type="int" >        4       60       61       66       66 </v>
   <v type="int" >        4       60       60       61       66 </v>
   <v type="int" >        4       61       66       67       67 </v>
   <v type="int" >        4       61       61       66       67 </v>
   <v type="int" >        4       60       61       61       66 </v>
   <v type="int" >        4       62       67       67       68 </v>
   <v type="int" >        4       61       62       67       67 </v>
   <v type="int" >        4       61       61       62       67 </v>
   <v type="int" >        4       62       67       68       68 </v>
   <v type="int" >        4       62       62       67       68 </v>
   <v type="int" >        4       61       62       62       67 </v>
   <v type="int" >        4       63       68       68       69 </v>
   <v type="int" >        4       62       63       68       68 </v>
   <v type="int" >        4       62       62       63       68 </v>
   <v type="int" >        4       63       68       69       69 </v>
   <v type="int" >        4       63       63       68       69 </v>
   <v type="int" >        4       62       63       63       68 </v>
   <v type="int" >        4       63       64       69       69 </v>
   <v type="int" >        4       63       63       64       69 </v>
   <v type="int" >        4       63       64       64       69 </v>
   <v type="int" >        4       66       66       66       70 </v>
   <v type="int" >        4       65       66       66       66 </v>
   <v type="int" >        2       65       65       66       66 </v>
   <v type="int" >        2       66       66       70       70 </v>
   <v type="int" >        4       67       70       70       71 </v>
   <v type="int" >        4       66       67       70       70 </v>
   <v type="int" >        4       66       66       67       70 </v>
   <v type="int" >        4       67       70       71       71 </v>
   <v type="int" >        4       67       67       70       71 </v>
   <v type="int" >        4       66       67       67       70 </v>
   <v type="int" >        4       68       71       71       72 </v>
   <v type="int" >        4       67       68       71       71 </v>
   <v type="int" >        4       67       67       68       71 </v>
   <v type="int" >        4       68       71       72       72 </v>
   <v type="int" >        4       68       68       71       72 </v>
   <v type="int" >        4       67       68       68       71 </v>
   <v type="int" >        4       68       69       72       72 </v>
   <v type="int" >        4       68       68       69       72 </v>
   <v type="int" >        4       68       69       69       72 </v>
   <v type="int" >        4       71       71       71       73 </v>
   <v type="int" >        4       70       71       71       71 </v>
   <v type="int" >        2       70       70       71       71 </v>
   <v type="int" >        2       71       71       73       73 </v>
   <v type="int" >        4       71       72       73       73 </v>
   <v type="int" >        4       71       71       72       73 </v>
   <v type="int" >        4       71       72       72       73 </v>
  </varray>
  <i name="volumeweight">      0.00065104 </i>
 </kpoints>
 <parameters>
  <separator name="general" >
   <i type="string" name="SYSTEM">NAME</i>
   <i type="logical" name="LCOMPAT"> F  </i>
  </separator>
  <separator name="electronic" >
   <i type="string" name="PREC">medium</i>
   <i name="ENMAX">    500.00000000</i>
   <i name="ENAUG">    644.87300000</i>
   <i name="EDIFF">      0.00010000</i>
   <i type="int" name="IALGO">    38</i>
   <i type="int" name="IWAVPR">    10</i>
   <i type="int" name="NBANDS">    24</i>
   <i name="NELECT">     32.00000000</i>
   <i type="int" name="TURBO">     0</i>
   <i type="int" name="IRESTART">     0</i>
   <i type="int" name="NREBOOT">     0</i>
   <i type="int" name="NMIN">     0</i>
   <i name="EREF">      0.00000000</i>
   <separator name="electronic smearing" >
    <i type="int" name="ISMEAR">    -5</i>
    <i name="SIGMA">      0.20000000</i>
    <i name="KSPACING">      0.50000000</i>
    <i type="logical" name="KGAMMA"> T  </i>
   </separator>
   <separator name="electronic projectors" >
    <i type="logical" name="LREAL"> F  </i>
    <v name="ROPT">      0.00000000</v>
    <i type="int" name="LMAXPAW">  -100</i>
    <i type="int" name="LMAXMIX">     2</i>
   </separator>
   <separator name="electronic startup" >
    <i type="int" name="ISTART">     0</i>
    <i type="int" name="ICHARG">     2</i>
    <i type="int" name="INIWAV">     1</i>
   </separator>
   <separator name="electronic spin" >
    <i type="int" name="ISPIN">     1</i>
    <i type="logical" name="LNONCOLLINEAR"> F  </i>
    <v name="MAGMOM">      1.00000000      1.00000000      1.00000000      1.00000000      1.00000000      1.00000000      1.00000000      1.00000000</v>
    <i name="NUPDOWN">     -1.00000000</i>
    <i type="logical" name="LSORBIT"> F  </i>
    <v name="SAXIS">      0.00000000      0.00000000      1.00000000</v>
    <i type="logical" name="LSPIRAL"> F  </i>
    <v name="QSPIRAL">      0.00000000      0.00000000      0.00000000</v>
    <i type="logical" name="LZEROZ"> F  </i>
   </separator>
   <separator name="electronic exchange-correlation" >
    <i type="logical" name="LASPH"> F  </i>
    <i type="logical" name="LMETAGGA"> F  </i>
   </separator>
   <separator name="electronic convergence" >
    <i type="int" name="NELM">   100</i>
    <i type="int" name="NELMDL">    -5</i>
    <i type="int" name="NELMIN">     5</i>
    <i name="ENINI">    500.00000000</i>
    <separator name="electronic convergence detail" >
     <i type="logical" name="LDIAG"> T  </i>
     <i type="logical" name="LSUBROT"> T  </i>
     <i name="WEIMIN">      0.00000000</i>
     <i name="EBREAK">      0.00000119</i>
     <i name="DEPER">      0.30000000</i>
     <i type="int" name="NRMM">     4</i>
     <i name="TIME">      0.40000000</i>
    </separator>
   </separator>
   <separator name="electronic mixer" >
    <i name="AMIX">      0.40000000</i>
    <i name="BMIX">      1.00000000</i>
    <i name="AMIN">      0.10000000</i>
    <i name="AMIX_MAG">      1.60000000</i>
    <i name="BMIX_MAG">      1.00000000</i>
    <separator name="electronic mixer details" >
     <i type="int" name="IMIX">     4</i>
     <i type="int" name="MAXMIX">   -45</i>
     <i name="WC">    100.00000000</i>
     <i type="int" name="INIMIX">     1</i>
     <i type="int" name="MIXPRE">     1</i>
     <i type="int" name="MREMOVE">     5</i>
    </separator>
   </separator>
   <separator name="electronic dipolcorrection" >
    <i type="logical" name="LDIPOL"> F  </i>
    <i type="logical" name="LMONO"> F  </i>
    <i type="int" name="IDIPOL">     0</i>
    <i name="EPSILON">      1.00000000</i>
    <v name="DIPOL">   -100.00000000   -100.00000000   -100.00000000</v>
    <i name="EFIELD">      0.00000000</i>
   </separator>
  </separator>
  <separator name="grids" >
   <i type="int" name="NGX">    28</i>
   <i type="int" name="NGY">    28</i>
   <i type="int" name="NGZ">    24</i>
   <i type="int" name="NGXF">    40</i>
   <i type="int" name="NGYF">    40</i>
   <i type="int" name="NGZF">    32</i>
   <i type="logical" name="ADDGRID"> F  </i>
  </separator>
  <separator name="ionic" >
   <i type="int" name="NSW">     0</i>
   <i type="int" name="IBRION">    -1</i>
   <i type="int" name="ISIF">     2</i>
   <i name="PSTRESS">      0.00000000</i>
   <i name="EDIFFG">      0.00100000</i>
   <i type="int" name="NFREE">     0</i>
   <i name="POTIM">      0.50000000</i>
   <i name="SMASS">     -3.00000000</i>
  </separator>
  <separator name="ionic md" >
   <i name="TEBEG">      0.00010000</i>
   <i name="TEEND">      0.00010000</i>
   <i type="int" name="NBLOCK">     1</i>
   <i type="int" name="KBLOCK">     1</i>
   <i type="int" name="NPACO">   256</i>
   <i name="APACO">     16.00000000</i>
  </separator>
  <separator name="symmetry" >
   <i type="int" name="ISYM">     2</i>
   <i name="SYMPREC">      0.00001000</i>
  </separator>
  <separator name="dos" >
   <i type="logical" name="LORBIT"> F  </i>
   <v name="RWIGS">     -1.00000000</v>
   <i type="int" name="NEDOS">  1000</i>
   <i name="EMIN">     10.00000000</i>
   <i name="EMAX">    -10.00000000</i>
   <i name="EFERMI">      0.00000000</i>
  </separator>
  <separator name="writing" >
   <i type="int" name="NWRITE">     2</i>
   <i type="logical" name="LWAVE"> T  </i>
   <i type="logical" name="LCHARG"> T  </i>
   <i type="logical" name="LPARD"> F  </i>
   <i type="logical" name="LVTOT"> F  </i>
   <i type="logical" name="LVHAR"> F  </i>
   <i type="logical" name="LELF"> F  </i>
   <i type="logical" name="LOPTICS"> F  </i>
   <v name="STM">      0.00000000      0.00000000      0.00000000      0.00000000      0.00000000</v>
  </separator>
  <separator name="performance" >
   <i type="int" name="NPAR">    12</i>
   <i type="int" name="NSIM">     4</i>
   <i type="int" name="NBLK">    -1</i>
   <i type="logical" name="LPLANE"> T  </i>
   <i type="logical" name="LSCALAPACK"> F  </i>
   <i type="logical" name="LSCAAWARE"> F  </i>
   <i type="logical" name="LSCALU"> F  </i>
   <i type="logical" name="LASYNC"> F  </i>
   <i type="logical" name="LORBITALREAL"> F  </i>
  </separator>
  <separator name="miscellaneous" >
   <i type="int" name="IDIOT">     3</i>
   <i type="logical" name="LMUSIC"> F  </i>
   <v name="POMASS">     12.01100000</v>
   <v name="DARWINR">      0.00000000</v>
   <v name="DARWINV">      1.00000000</v>
   <i type="logical" name="LCORR"> T  </i>
  </separator>
  <i type="logical" name="GGA_COMPAT"> T  </i>
  <i type="logical" name="LBERRY"> F  </i>
  <i type="int" name="ICORELEVEL">     0</i>
  <i type="logical" name="LDAU"> F  </i>
  <i type="int" name="I_CONSTRAINED_M">     0</i>
  <separator name="electronic exchange-correlation" >
   <i type="string" name="GGA">--</i>
   <i type="int" name="VOSKOWN">     0</i>
   <i type="logical" name="LHFCALC"> F  </i>
   <i type="string" name="PRECFOCK"></i>
   <i type="logical" name="LHFONE"> F  </i>
   <i type="logical" name="LRHFCALC"> F  </i>
   <i type="logical" name="LTHOMAS"> F  </i>
   <i type="logical" name="LMODELHF"> F  </i>
   <i name="ENCUT4O">     -1.00000000</i>
   <i type="int" name="EXXOEP">     0</i>
   <i type="int" name="FOURORBIT">     0</i>
   <i name="AEXX">      0.00000000</i>
   <i name="HFALPHA">      0.00000000</i>
   <i name="ALDAX">      1.00000000</i>
   <i name="AGGAX">      1.00000000</i>
   <i name="ALDAC">      1.00000000</i>
   <i name="AGGAC">      1.00000000</i>
   <i type="int" name="NKREDX">     1</i>
   <i type="int" name="NKREDY">     1</i>
   <i type="int" name="NKREDZ">     1</i>
   <i type="logical" name="SHIFTRED"> F  </i>
   <i type="logical" name="ODDONLY"> F  </i>
   <i type="logical" name="EVENONLY"> F  </i>
   <i type="int" name="LMAXFOCK">     0</i>
   <i type="int" name="NMAXFOCKAE">     0</i>
   <i type="logical" name="LFOCKAEDFT"> F  </i>
   <i name="HFSCREEN">      0.00000000</i>
   <i name="HFSCREENC">      0.00000000</i>
  </separator>
  <separator name="model GW" >
   <i type="int" name="MODEL_GW">     0</i>
   <i name="MODEL_EPS0">      6.00289531</i>
   <i name="MODEL_ALPHA">      1.00000000</i>
  </separator>
  <separator name="linear response parameters" >
   <i type="logical" name="LEPSILON"> F  </i>
   <i type="logical" name="LRPA"> F  </i>
   <i type="logical" name="LNABLA"> F  </i>
   <i type="logical" name="LVEL"> F  </i>
   <i type="int" name="KINTER">     0</i>
   <i name="CSHIFT">      0.10000000</i>
   <i name="OMEGAMAX">     -1.00000000</i>
  </separator>
  <separator name="orbital magnetization" >
   <i type="logical" name="ORBITALMAG"> F  </i>
   <i type="logical" name="LMAGBLOCH"> F  </i>
   <i type="logical" name="LCHIMAG"> F  </i>
   <i type="logical" name="LGAUGE"> T  </i>
   <i type="int" name="MAGATOM">     0</i>
   <v name="MAGDIPOL">      0.00000000      0.00000000      0.00000000</v>
   <v name="AVECCONST">      0.00000000      0.00000000      0.00000000</v>
  </separator>
  <separator name="response functions" >
   <i type="logical" name="LRPA"> T  </i>
   <i type="logical" name="LTCTE"> F  </i>
   <i type="logical" name="LTETE"> F  </i>
   <i type="logical" name="L2ORDER"> F  </i>
   <i type="logical" name="LUSEW"> F  </i>
   <i name="ENCUTGW">     -2.00000000</i>
   <i name="ENCUTGWSOFT">     -2.00000000</i>
   <i name="ENCUTLF">     -1.00000000</i>
   <i type="int" name="LMAXMP2">    -1</i>
   <i name="SCISSOR">      0.00000000</i>
   <i type="int" name="NOMEGA">     0</i>
   <i type="int" name="NOMEGAR">     0</i>
   <i type="int" name="NBANDSGW">    -1</i>
   <i type="int" name="NBANDSO">    -1</i>
   <i type="int" name="NBANDSV">    -1</i>
   <i type="int" name="NELM">   100</i>
   <i type="int" name="DIM">     3</i>
   <i type="int" name="ANTIRES">     0</i>
   <i name="OMEGAMAX">    -30.00000000</i>
   <i name="OMEGATL">   -200.00000000</i>
   <i type="int" name="OMEGAGRID">     0</i>
   <i name="CSHIFT">     -0.10000000</i>
   <i type="logical" name="SELFENERGY"> F  </i>
   <i type="logical" name="LSPECTRAL"> F  </i>
   <i type="logical" name="ODDONLYGW"> F  </i>
   <i type="logical" name="EVENONLYGW"> F  </i>
   <i type="int" name="NKREDLFX">     1</i>
   <i type="int" name="NKREDLFY">     1</i>
   <i type="int" name="NKREDLFZ">     1</i>
   <i type="int" name="MAXMEM">  1800</i>
   <i type="int" name="TELESCOPE">     0</i>
  </separator>
 </parameters>
 <atominfo>
  <atoms>       8 </atoms>
  <types>       1 </types>
  <array name="atoms" >
   <dimension dim="1">ion</dimension>
   <field type="string">element</field>
   <field type="int">atomtype</field>
   <set>
    <rc><c>C </c><c>   1</c></rc>
    <rc><c>C </c><c>   1</c></rc>
    <rc><c>C </c><c>   1</c></rc>
    <rc><c>C </c><c>   1</c></rc>
    <rc><c>C </c><c>   1</c></rc>
    <rc><c>C </c><c>   1</c></rc>
    <rc><c>C </c><c>   1</c></rc>
    <rc><c>C </c><c>   1</c></rc>
   </set>
  </array>
  <array name="atomtypes" >
   <dimension dim="1">type</dimension>
   <field type="int">atomspertype</field>
   <field type="string">element</field>
   <field>mass</field>
   <field>valence</field>
   <field type="string">pseudopotential</field>
   <set>
    <rc><c>   8</c><c>C </c><c>     12.01100000</c><c>      4.00000000</c><c> PAW_PBE C 08Apr2002                    </c></rc>
   </set>
  </array>
 </atominfo>
 <structure name="initialpos" >
  <crystal>
   <varray name="basis" >
    <v>       4.90416594      -0.00003262       0.00000000 </v>
    <v>      -2.45211122       4.24711598       0.00000000 </v>
    <v>       0.00000000       0.00000000       3.84274793 </v>
   </varray>
   <i name="volume">     80.03860417 </i>
   <varray name="rec_basis" >
    <v>       0.20390905       0.11772876       0.00000000 </v>
    <v>       0.00000157       0.23545480       0.00000000 </v>
    <v>       0.00000000       0.00000000       0.26023044 </v>
   </varray>
  </crystal>
  <varray name="positions" >
   <v>       0.99999710       0.00000290       0.07317000 </v>
   <v>       0.33333290       0.16666710       0.07317000 </v>
   <v>       0.49999710       0.00000290       0.07317000 </v>
   <v>       0.83333287       0.16666710       0.07317000 </v>
   <v>       0.99999710       0.50000290       0.07317000 </v>
   <v>       0.33333290       0.66666713       0.07317000 </v>
   <v>       0.49999710       0.50000290       0.07317000 </v>
   <v>       0.83333287       0.66666713       0.07317000 </v>
  </varray>
 </structure>
 <calculation>
  <scstep>
   <time name="dav">    2.42    2.43</time>
   <time name="total">    2.44    2.47</time>
   <energy>
    <i name="alphaZ">     65.15269163 </i>
    <i name="ewald">   -738.74955668 </i>
    <i name="hartreedc">   -424.07806645 </i>
    <i name="XCdc">    110.74882809 </i>
    <i name="pawpsdc">    302.65154477 </i>
    <i name="pawaedc">   -311.85538214 </i>
    <i name="eentropy">      0.00000000 </i>
    <i name="bandstr">    -73.52923004 </i>
    <i name="atom">   1177.18737338 </i>
    <i name="e_fr_energy">    107.52820257 </i>
    <i name="e_wo_entrp">    107.52820257 </i>
    <i name="e_0_energy">    107.52820257 </i>
   </energy>
  </scstep>
  <scstep>
   <time name="dav">    2.03    2.04</time>
   <time name="total">    2.04    2.05</time>
   <energy>
    <i name="e_fr_energy">    -70.47399437 </i>
    <i name="e_wo_entrp">    -70.47399437 </i>
    <i name="e_0_energy">    -70.47399437 </i>
   </energy>
  </scstep>
  <scstep>
   <time name="dav">    2.23    2.23</time>
   <time name="total">    2.24    2.25</time>
   <energy>
    <i name="e_fr_energy">    -77.07954500 </i>
    <i name="e_wo_entrp">    -77.07954500 </i>
    <i name="e_0_energy">    -77.07954500 </i>
   </energy>
  </scstep>
  <scstep>
   <time name="dav">    2.04    2.05</time>
   <time name="total">    2.05    2.07</time>
   <energy>
    <i name="e_fr_energy">    -77.14730395 </i>
    <i name="e_wo_entrp">    -77.14730395 </i>
    <i name="e_0_energy">    -77.14730395 </i>
   </energy>
  </scstep>
  <scstep>
   <time name="dav">    2.23    2.23</time>
   <time name="total">    2.38    2.40</time>
   <energy>
    <i name="e_fr_energy">    -77.14924033 </i>
    <i name="e_wo_entrp">    -77.14924033 </i>
    <i name="e_0_energy">    -77.14924033 </i>
   </energy>
  </scstep>
  <scstep>
   <time name="dav">    1.85    1.86</time>
   <time name="total">    2.01    2.02</time>
   <energy>
    <i name="e_fr_energy">    -72.64963693 </i>
    <i name="e_wo_entrp">    -72.64963693 </i>
    <i name="e_0_energy">    -72.64963693 </i>
   </energy>
  </scstep>
  <scstep>
   <time name="dav">    1.86    1.86</time>
   <time name="total">    2.01    2.03</time>
   <energy>
    <i name="e_fr_energy">    -71.06126933 </i>
    <i name="e_wo_entrp">    -71.06126933 </i>
    <i name="e_0_energy">    -71.06126933 </i>
   </energy>
  </scstep>
  <scstep>
   <time name="dav">    1.87    1.87</time>
   <time name="total">    2.03    2.04</time>
   <energy>
    <i name="e_fr_energy">    -71.08242050 </i>
    <i name="e_wo_entrp">    -71.08242050 </i>
    <i name="e_0_energy">    -71.08242050 </i>
   </energy>
  </scstep>
  <scstep>
   <time name="dav">    1.92    1.92</time>
   <time name="total">    2.08    2.09</time>
   <energy>
    <i name="e_fr_energy">    -71.07826460 </i>
    <i name="e_wo_entrp">    -71.07826460 </i>
    <i name="e_0_energy">    -71.07826460 </i>
   </energy>
  </scstep>
  <scstep>
   <time name="dav">    2.01    2.01</time>
   <time name="total">    2.17    2.19</time>
   <energy>
    <i name="e_fr_energy">    -71.07800730 </i>
    <i name="e_wo_entrp">    -71.07800730 </i>
    <i name="e_0_energy">    -71.07800730 </i>
   </energy>
  </scstep>
  <scstep>
   <time name="dav">    1.77    1.77</time>
   <time name="total">    1.78    1.80</time>
   <energy>
    <i name="alphaZ">     65.15269163 </i>
    <i name="ewald">   -738.74955668 </i>
    <i name="hartreedc">   -518.56549626 </i>
    <i name="XCdc">    116.31775533 </i>
    <i name="pawpsdc">    572.09307231 </i>
    <i name="pawaedc">   -582.54387950 </i>
    <i name="eentropy">      0.00000000 </i>
    <i name="bandstr">   -161.96995562 </i>
    <i name="atom">   1177.18737338 </i>
    <i name="e_fr_energy">    -71.07799541 </i>
    <i name="e_wo_entrp">    -71.07799541 </i>
    <i name="e_0_energy">    -71.07799541 </i>
   </energy>
  </scstep>
  <v type="logical" name="LVDW"> F  </v>
  <structure>
   <crystal>
    <varray name="basis" >
     <v>       4.90416594      -0.00003262       0.00000000 </v>
     <v>      -2.45211122       4.24711598       0.00000000 </v>
     <v>       0.00000000       0.00000000       3.84274793 </v>
    </varray>
    <i name="volume">     80.03860417 </i>
    <varray name="rec_basis" >
     <v>       0.20390905       0.11772876       0.00000000 </v>
     <v>       0.00000157       0.23545480       0.00000000 </v>
     <v>       0.00000000       0.00000000       0.26023044 </v>
    </varray>
   </crystal>
   <varray name="positions" >
    <v>       0.99999710       0.00000290       0.07317000 </v>
    <v>       0.33333290       0.16666710       0.07317000 </v>
    <v>       0.49999710       0.00000290       0.07317000 </v>
    <v>       0.83333287       0.16666710       0.07317000 </v>
    <v>       0.99999710       0.50000290       0.07317000 </v>
    <v>       0.33333290       0.66666713       0.07317000 </v>
    <v>       0.49999710       0.50000290       0.07317000 </v>
    <v>       0.83333287       0.66666713       0.07317000 </v>
   </varray>
  </structure>
  <varray name="forces" >
   <v>       0.00079056      -0.00045643       0.00000000 </v>
   <v>      -0.00079056       0.00045643      -0.00000000 </v>
   <v>       0.00079056      -0.00045643      -0.00000000 </v>
   <v>      -0.00079056       0.00045643      -0.00000000 </v>
   <v>       0.00079056      -0.00045643       0.00000000 </v>
   <v>      -0.00079056       0.00045643       0.00000000 </v>
   <v>       0.00079056      -0.00045643       0.00000000 </v>
   <v>      -0.00079056       0.00045643      -0.00000000 </v>
  </varray>
  <varray name="stress" >
   <v>      38.96078421       0.02512034       0.00000000 </v>
   <v>       0.02512034      38.98979068       0.00000000 </v>
   <v>      -0.00000000       0.00000000     310.22216007 </v>
  </varray>
  <energy>
   <i name="e_fr_energy">    -71.07799541 </i>
   <i name="e_wo_entrp">    -71.07799541 </i>
   <i name="e_0_energy">      0.00000000 </i>
  </energy>
  <time name="totalsc">   25.02   25.22</time>
  <eigenvalues>
   <array>
    <dimension dim="1">band</dimension>
    <dimension dim="2">kpoint</dimension>
    <dimension dim="3">spin</dimension>
    <field>eigene</field>
    <field>occ</field>
    <set>
     <set comment="spin 1">
      <set comment="kpoint 1">
       <r>  -15.6469    1.0000 </r>
       <r>  -10.2906    1.0000 </r>
       <r>  -10.2904    1.0000 </r>
       <r>  -10.2904    1.0000 </r>
       <r>   -9.2925    1.0000 </r>
       <r>   -9.2922    1.0000 </r>
       <r>   -9.2922    1.0000 </r>
       <r>   -3.2912    1.0000 </r>
       <r>   -2.3494    1.0000 </r>
       <r>   -2.3494    1.0000 </r>
       <r>   -2.3489    1.0000 </r>
       <r>    1.0980    1.0000 </r>
       <r>    1.0987    1.0000 </r>
       <r>    1.9030    1.0000 </r>
       <r>    1.9030    1.0000 </r>
       <r>    1.9030    1.0000 </r>
       <r>    6.1040    0.0000 </r>
       <r>    6.1044    0.0000 </r>
       <r>    6.1044    0.0000 </r>
       <r>    6.9819    0.0000 </r>
       <r>   11.5087    0.0000 </r>
       <r>   11.5087    0.0000 </r>
       <r>   11.5094    0.0000 </r>
       <r>   12.5031    0.0000 </r>
      </set>
      <set comment="kpoint 2">
       <r>  -15.6234    1.0000 </r>
       <r>  -10.6337    1.0000 </r>
       <r>  -10.3816    1.0000 </r>
       <r>  -10.3815    1.0000 </r>
       <r>   -9.1626    1.0000 </r>
       <r>   -9.1623    1.0000 </r>
       <r>   -8.9141    1.0000 </r>
       <r>   -3.2636    1.0000 </r>
       <r>   -2.4231    1.0000 </r>
       <r>   -2.4226    1.0000 </r>
       <r>   -2.3260    1.0000 </r>
       <r>    1.0011    1.0000 </r>
       <r>    1.0462    1.0000 </r>
       <r>    1.7629    1.0000 </r>
       <r>    1.8879    1.0000 </r>
       <r>    1.8879    1.0000 </r>
       <r>    6.1414    0.0000 </r>
       <r>    6.1418    0.0000 </r>
       <r>    6.2802    0.0000 </r>
       <r>    7.0117    0.0000 </r>
       <r>   11.5193    0.0000 </r>
       <r>   11.6168    0.0000 </r>
       <r>   11.6174    0.0000 </r>
       <r>   12.5198    0.0000 </r>
      </set>
      <set comment="kpoint 3">
       <r>  -15.5529    1.0000 </r>
       <r>  -11.2061    1.0000 </r>
       <r>  -10.5719    1.0000 </r>
       <r>  -10.5718    1.0000 </r>
       <r>   -8.8564    1.0000 </r>
       <r>   -8.8561    1.0000 </r>
       <r>   -8.2376    1.0000 </r>
       <r>   -3.1811    1.0000 </r>
       <r>   -2.6361    1.0000 </r>
       <r>   -2.6356    1.0000 </r>
       <r>   -2.2563    1.0000 </r>
       <r>    0.7177    1.0000 </r>
       <r>    0.8968    1.0000 </r>
       <r>    1.4004    1.0000 </r>
       <r>    1.8461    1.0000 </r>
       <r>    1.8461    1.0000 </r>
       <r>    6.2481    0.0000 </r>
       <r>    6.2484    0.0000 </r>
       <r>    6.7493    0.0000 </r>
       <r>    7.1013    0.0000 </r>
       <r>   11.5479    0.0000 </r>
       <r>   11.9317    0.0000 </r>
       <r>   11.9323    0.0000 </r>
       <r>   12.5487    0.0000 </r>
      </set>
      <set comment="kpoint 4">
       <r>  -15.4357    1.0000 </r>
       <r>  -11.7852    1.0000 </r>
       <r>  -10.7728    1.0000 </r>
       <r>  -10.7727    1.0000 </r>
       <r>   -8.4648    1.0000 </r>
       <r>   -8.4645    1.0000 </r>
       <r>   -7.4864    1.0000 </r>
       <r>   -3.0440    1.0000 </r>
       <r>   -2.9666    1.0000 </r>
       <r>   -2.9661    1.0000 </r>
       <r>   -2.1409    1.0000 </r>
       <r>    0.2714    1.0000 </r>
       <r>    0.6667    1.0000 </r>
       <r>    0.9185    1.0000 </r>
       <r>    1.7862    1.0000 </r>
       <r>    1.7862    1.0000 </r>
       <r>    6.4079    0.0000 </r>
       <r>    6.4082    0.0000 </r>
       <r>    7.2507    0.0000 </r>
       <r>    7.4060    0.0000 </r>
       <r>   11.5633    0.0000 </r>
       <r>   12.0819    0.0000 </r>
       <r>   12.4249    0.0000 </r>
       <r>   12.4256    0.0000 </r>
      </set>
      <set comment="kpoint 5">
       <r>  -15.2717    1.0000 </r>
       <r>  -12.3375    1.0000 </r>
       <r>  -10.9515    1.0000 </r>
       <r>  -10.9514    1.0000 </r>
       <r>   -8.0255    1.0000 </r>
       <r>   -8.0253    1.0000 </r>
       <r>   -6.6965    1.0000 </r>
       <r>   -3.3847    1.0000 </r>
       <r>   -3.3842    1.0000 </r>
       <r>   -2.8528    1.0000 </r>
       <r>   -1.9813    1.0000 </r>
       <r>   -0.3070    1.0000 </r>
       <r>    0.3780    1.0000 </r>
       <r>    0.3916    1.0000 </r>
       <r>    1.7192    1.0000 </r>
       <r>    1.7192    1.0000 </r>
       <r>    6.5977    0.0000 </r>
       <r>    6.5979    0.0000 </r>
       <r>    7.4600    0.0000 </r>
       <r>    8.1719    0.0000 </r>
       <r>   11.2112    0.0000 </r>
       <r>   11.7866    0.0000 </r>
       <r>   12.5730    0.0000 </r>
       <r>   12.9786    0.0000 </r>
      </set>
      <set comment="kpoint 6">
       <r>  -15.0614    1.0000 </r>
       <r>  -12.8538    1.0000 </r>
       <r>  -11.0960    1.0000 </r>
       <r>  -11.0959    1.0000 </r>
       <r>   -7.5597    1.0000 </r>
       <r>   -7.5594    1.0000 </r>
       <r>   -5.8804    1.0000 </r>
       <r>   -3.8561    1.0000 </r>
       <r>   -3.8557    1.0000 </r>
       <r>   -2.6082    1.0000 </r>
       <r>   -1.7796    1.0000 </r>
       <r>   -0.9860    1.0000 </r>
       <r>   -0.1388    1.0000 </r>
       <r>    0.0533    1.0000 </r>
       <r>    1.6557    1.0000 </r>
       <r>    1.6557    1.0000 </r>
       <r>    6.7900    0.0000 </r>
       <r>    6.7902    0.0000 </r>
       <r>    7.7291    0.0000 </r>
       <r>    8.9995    0.0000 </r>
       <r>   10.5711    0.0000 </r>
       <r>   11.8529    0.0000 </r>
       <r>   12.5320    0.0000 </r>
       <r>   12.9021    0.0000 </r>
      </set>
      <set comment="kpoint 7">
       <r>  -14.8050    1.0000 </r>
       <r>  -13.3302    1.0000 </r>
       <r>  -11.2014    1.0000 </r>
       <r>  -11.2013    1.0000 </r>
       <r>   -7.0929    1.0000 </r>
       <r>   -7.0927    1.0000 </r>
       <r>   -5.0470    1.0000 </r>
       <r>   -4.3396    1.0000 </r>
       <r>   -4.3392    1.0000 </r>
       <r>   -2.3116    1.0000 </r>
       <r>   -1.7369    1.0000 </r>
       <r>   -1.5387    1.0000 </r>
       <r>   -0.6502    1.0000 </r>
       <r>   -0.2877    1.0000 </r>
       <r>    1.6043    1.0000 </r>
       <r>    1.6043    1.0000 </r>
       <r>    6.9557    0.0000 </r>
       <r>    6.9559    0.0000 </r>
       <r>    8.0580    0.0000 </r>
       <r>    9.8585    0.0000 </r>
       <r>    9.9584    0.0000 </r>
       <r>   11.9631    0.0000 </r>
       <r>   12.4527    0.0000 </r>
       <r>   13.1919    0.0000 </r>
      </set>
      <set comment="kpoint 8">
       <r>  -14.5030    1.0000 </r>
       <r>  -13.7647    1.0000 </r>
       <r>  -11.2653    1.0000 </r>
       <r>  -11.2653    1.0000 </r>
       <r>   -6.6838    1.0000 </r>
       <r>   -6.6836    1.0000 </r>
       <r>   -4.7639    1.0000 </r>
       <r>   -4.7637    1.0000 </r>
       <r>   -4.2047    1.0000 </r>
       <r>   -2.5359    1.0000 </r>
       <r>   -1.9646    1.0000 </r>
       <r>   -1.2626    1.0000 </r>
       <r>   -1.1297    1.0000 </r>
       <r>   -0.6287    1.0000 </r>
       <r>    1.5711    1.0000 </r>
       <r>    1.5711    1.0000 </r>
       <r>    7.0684    0.0000 </r>
       <r>    7.0685    0.0000 </r>
       <r>    8.4461    0.0000 </r>
       <r>    9.3976    0.0000 </r>
       <r>   10.7265    0.0000 </r>
       <r>   12.0887    0.0000 </r>
       <r>   12.3444    0.0000 </r>
       <r>   12.4119    0.0000 </r>
      </set>
      <set comment="kpoint 9">
       <r>  -14.1560    1.0000 </r>
       <r>  -14.1560    1.0000 </r>
       <r>  -11.2867    1.0000 </r>
       <r>  -11.2867    1.0000 </r>
       <r>   -6.4936    1.0000 </r>
       <r>   -6.4936    1.0000 </r>
       <r>   -4.9598    1.0000 </r>
       <r>   -4.9598    1.0000 </r>
       <r>   -3.3636    1.0000 </r>
       <r>   -3.3636    1.0000 </r>
       <r>   -1.5695    1.0000 </r>
       <r>   -1.5695    1.0000 </r>
       <r>   -0.9568    1.0000 </r>
       <r>   -0.9568    1.0000 </r>
       <r>    1.5596    1.0000 </r>
       <r>    1.5596    1.0000 </r>
       <r>    7.1084    0.0000 </r>
       <r>    7.1084    0.0000 </r>
       <r>    8.8929    0.0000 </r>
       <r>    8.8929    0.0000 </r>
       <r>   11.5836    0.0000 </r>
       <r>   11.5836    0.0000 </r>
       <r>   12.2192    0.0000 </r>
       <r>   12.2192    0.0000 </r>
      </set>
      <set comment="kpoint 10">
       <r>  -15.5764    1.0000 </r>
       <r>  -10.8985    1.0000 </r>
       <r>  -10.8985    1.0000 </r>
       <r>  -10.2304    1.0000 </r>
       <r>   -9.2321    1.0000 </r>
       <r>   -8.5760    1.0000 </r>
       <r>   -8.5760    1.0000 </r>
       <r>   -3.2086    1.0000 </r>
       <r>   -2.6591    1.0000 </r>
       <r>   -2.3764    1.0000 </r>
       <r>   -2.3764    1.0000 </r>
       <r>    0.8141    1.0000 </r>
       <r>    0.9421    1.0000 </r>
       <r>    1.6232    1.0000 </r>
       <r>    1.6232    1.0000 </r>
       <r>    1.9878    1.0000 </r>
       <r>    6.0720    0.0000 </r>
       <r>    6.4771    0.0000 </r>
       <r>    6.4771    0.0000 </r>
       <r>    7.0714    0.0000 </r>
       <r>   11.6371    0.0000 </r>
       <r>   11.6371    0.0000 </r>
       <r>   11.9221    0.0000 </r>
       <r>   12.5502    0.0000 </r>
      </set>
      <set comment="kpoint 11">
       <r>  -15.4825    1.0000 </r>
       <r>  -11.4818    1.0000 </r>
       <r>  -11.1423    1.0000 </r>
       <r>  -10.2600    1.0000 </r>
       <r>   -9.0444    1.0000 </r>
       <r>   -8.1833    1.0000 </r>
       <r>   -7.8549    1.0000 </r>
       <r>   -3.0988    1.0000 </r>
       <r>   -3.0138    1.0000 </r>
       <r>   -2.5657    1.0000 </r>
       <r>   -2.2835    1.0000 </r>
       <r>    0.4572    1.0000 </r>
       <r>    0.7444    1.0000 </r>
       <r>    1.1886    1.0000 </r>
       <r>    1.4807    1.0000 </r>
       <r>    2.0565    1.0000 </r>
       <r>    6.0728    0.0000 </r>
       <r>    6.7160    0.0000 </r>
       <r>    7.0514    0.0000 </r>
       <r>    7.1909    0.0000 </r>
       <r>   11.6662    0.0000 </r>
       <r>   11.9565    0.0000 </r>
       <r>   12.4094    0.0000 </r>
       <r>   12.5977    0.0000 </r>
      </set>
      <set comment="kpoint 12">
       <r>  -15.3419    1.0000 </r>
       <r>  -12.0490    1.0000 </r>
       <r>  -11.3528    1.0000 </r>
       <r>  -10.3866    1.0000 </r>
       <r>   -8.6863    1.0000 </r>
       <r>   -7.7521    1.0000 </r>
       <r>   -7.0835    1.0000 </r>
       <r>   -3.4575    1.0000 </r>
       <r>   -2.9346    1.0000 </r>
       <r>   -2.8716    1.0000 </r>
       <r>   -2.1455    1.0000 </r>
       <r>   -0.0457    1.0000 </r>
       <r>    0.4754    1.0000 </r>
       <r>    0.6770    1.0000 </r>
       <r>    1.3463    1.0000 </r>
       <r>    2.0944    1.0000 </r>
       <r>    6.1340    0.0000 </r>
       <r>    6.9759    0.0000 </r>
       <r>    7.3704    0.0000 </r>
       <r>    7.7684    0.0000 </r>
       <r>   11.5309    0.0000 </r>
       <r>   11.9084    0.0000 </r>
       <r>   12.3848    0.0000 </r>
       <r>   12.6325    0.0000 </r>
      </set>
      <set comment="kpoint 13">
       <r>  -15.1548    1.0000 </r>
       <r>  -12.5837    1.0000 </r>
       <r>  -11.5246    1.0000 </r>
       <r>  -10.5226    1.0000 </r>
       <r>   -8.2517    1.0000 </r>
       <r>   -7.2945    1.0000 </r>
       <r>   -6.2810    1.0000 </r>
       <r>   -3.9583    1.0000 </r>
       <r>   -3.2628    1.0000 </r>
       <r>   -2.7167    1.0000 </r>
       <r>   -1.9640    1.0000 </r>
       <r>   -0.6656    1.0000 </r>
       <r>    0.1445    1.0000 </r>
       <r>    0.1595    1.0000 </r>
       <r>    1.2290    1.0000 </r>
       <r>    2.1080    1.0000 </r>
       <r>    6.2349    0.0000 </r>
       <r>    7.2329    0.0000 </r>
       <r>    7.6097    0.0000 </r>
       <r>    8.5667    0.0000 </r>
       <r>   10.9183    0.0000 </r>
       <r>   11.9107    0.0000 </r>
       <r>   12.3267    0.0000 </r>
       <r>   12.6292    0.0000 </r>
      </set>
      <set comment="kpoint 14">
       <r>  -14.9215    1.0000 </r>
       <r>  -13.0802    1.0000 </r>
       <r>  -11.6552    1.0000 </r>
       <r>  -10.6357    1.0000 </r>
       <r>   -7.7860    1.0000 </r>
       <r>   -6.8276    1.0000 </r>
       <r>   -5.4574    1.0000 </r>
       <r>   -4.4812    1.0000 </r>
       <r>   -3.7012    1.0000 </r>
       <r>   -2.4461    1.0000 </r>
       <r>   -1.7414    1.0000 </r>
       <r>   -1.3730    1.0000 </r>
       <r>   -0.3784    1.0000 </r>
       <r>   -0.1811    1.0000 </r>
       <r>    1.1356    1.0000 </r>
       <r>    2.1067    1.0000 </r>
       <r>    6.3480    0.0000 </r>
       <r>    7.4607    0.0000 </r>
       <r>    7.9088    0.0000 </r>
       <r>    9.4095    0.0000 </r>
       <r>   10.2826    0.0000 </r>
       <r>   12.0085    0.0000 </r>
       <r>   12.1665    0.0000 </r>
       <r>   12.5811    0.0000 </r>
      </set>
      <set comment="kpoint 15">
       <r>  -14.6423    1.0000 </r>
       <r>  -13.5357    1.0000 </r>
       <r>  -11.7429    1.0000 </r>
       <r>  -10.7146    1.0000 </r>
       <r>   -7.3335    1.0000 </r>
       <r>   -6.3860    1.0000 </r>
       <r>   -4.9771    1.0000 </r>
       <r>   -4.6213    1.0000 </r>
       <r>   -4.1341    1.0000 </r>
       <r>   -2.1421    1.0000 </r>
       <r>   -2.1242    1.0000 </r>
       <r>   -1.4811    1.0000 </r>
       <r>   -0.8749    1.0000 </r>
       <r>   -0.5281    1.0000 </r>
       <r>    1.0708    1.0000 </r>
       <r>    2.0999    1.0000 </r>
       <r>    6.4446    0.0000 </r>
       <r>    7.6324    0.0000 </r>
       <r>    8.2674    0.0000 </r>
       <r>    9.6943    0.0000 </r>
       <r>   10.2709    0.0000 </r>
       <r>   12.1279    0.0000 </r>
       <r>   12.4946    0.0000 </r>
       <r>   12.7588    0.0000 </r>
      </set>
      <set comment="kpoint 16">
       <r>  -14.3178    1.0000 </r>
       <r>  -13.9486    1.0000 </r>
       <r>  -11.7869    1.0000 </r>
       <r>  -10.7549    1.0000 </r>
       <r>   -6.9985    1.0000 </r>
       <r>   -6.0667    1.0000 </r>
       <r>   -5.3356    1.0000 </r>
       <r>   -4.4523    1.0000 </r>
       <r>   -3.7820    1.0000 </r>
       <r>   -2.9510    1.0000 </r>
       <r>   -1.7529    1.0000 </r>
       <r>   -1.3352    1.0000 </r>
       <r>   -1.1878    1.0000 </r>
       <r>   -0.8673    1.0000 </r>
       <r>    1.0377    1.0000 </r>
       <r>    2.0947    1.0000 </r>
       <r>    6.4999    0.0000 </r>
       <r>    7.7252    0.0000 </r>
       <r>    8.6851    0.0000 </r>
       <r>    9.1610    0.0000 </r>
       <r>   11.1307    0.0000 </r>
       <r>   11.9701    0.0000 </r>
       <r>   12.2556    0.0000 </r>
       <r>   12.3817    0.0000 </r>
      </set>
      <set comment="kpoint 17">
       <r>  -14.3178    1.0000 </r>
       <r>  -13.9486    1.0000 </r>
       <r>  -11.7869    1.0000 </r>
       <r>  -10.7549    1.0000 </r>
       <r>   -6.9984    1.0000 </r>
       <r>   -6.0668    1.0000 </r>
       <r>   -5.3357    1.0000 </r>
       <r>   -4.4521    1.0000 </r>
       <r>   -3.7820    1.0000 </r>
       <r>   -2.9510    1.0000 </r>
       <r>   -1.7529    1.0000 </r>
       <r>   -1.3352    1.0000 </r>
       <r>   -1.1877    1.0000 </r>
       <r>   -0.8673    1.0000 </r>
       <r>    1.0377    1.0000 </r>
       <r>    2.0947    1.0000 </r>
       <r>    6.4999    0.0000 </r>
       <r>    7.7252    0.0000 </r>
       <r>    8.6850    0.0000 </r>
       <r>    9.1611    0.0000 </r>
       <r>   11.1307    0.0000 </r>
       <r>   11.9701    0.0000 </r>
       <r>   12.2555    0.0000 </r>
       <r>   12.3818    0.0000 </r>
      </set>
      <set comment="kpoint 18">
       <r>  -14.6423    1.0000 </r>
       <r>  -13.5357    1.0000 </r>
       <r>  -11.7429    1.0000 </r>
       <r>  -10.7146    1.0000 </r>
       <r>   -7.3333    1.0000 </r>
       <r>   -6.3863    1.0000 </r>
       <r>   -4.9774    1.0000 </r>
       <r>   -4.6213    1.0000 </r>
       <r>   -4.1338    1.0000 </r>
       <r>   -2.1421    1.0000 </r>
       <r>   -2.1242    1.0000 </r>
       <r>   -1.4811    1.0000 </r>
       <r>   -0.8749    1.0000 </r>
       <r>   -0.5281    1.0000 </r>
       <r>    1.0708    1.0000 </r>
       <r>    2.0999    1.0000 </r>
       <r>    6.4447    0.0000 </r>
       <r>    7.6323    0.0000 </r>
       <r>    8.2674    0.0000 </r>
       <r>    9.6944    0.0000 </r>
       <r>   10.2709    0.0000 </r>
       <r>   12.0790    0.0000 </r>
       <r>   12.1279    0.0000 </r>
       <r>   12.4949    0.0000 </r>
      </set>
      <set comment="kpoint 19">
       <r>  -14.9215    1.0000 </r>
       <r>  -13.0802    1.0000 </r>
       <r>  -11.6552    1.0000 </r>
       <r>  -10.6357    1.0000 </r>
       <r>   -7.7857    1.0000 </r>
       <r>   -6.8279    1.0000 </r>
       <r>   -5.4574    1.0000 </r>
       <r>   -4.4816    1.0000 </r>
       <r>   -3.7008    1.0000 </r>
       <r>   -2.4461    1.0000 </r>
       <r>   -1.7414    1.0000 </r>
       <r>   -1.3731    1.0000 </r>
       <r>   -0.3784    1.0000 </r>
       <r>   -0.1810    1.0000 </r>
       <r>    1.1356    1.0000 </r>
       <r>    2.1067    1.0000 </r>
       <r>    6.3482    0.0000 </r>
       <r>    7.4605    0.0000 </r>
       <r>    7.9088    0.0000 </r>
       <r>    9.4095    0.0000 </r>
       <r>   10.2826    0.0000 </r>
       <r>   12.0085    0.0000 </r>
       <r>   12.1637    0.0000 </r>
       <r>   12.5812    0.0000 </r>
      </set>
      <set comment="kpoint 20">
       <r>  -15.1548    1.0000 </r>
       <r>  -12.5837    1.0000 </r>
       <r>  -11.5247    1.0000 </r>
       <r>  -10.5226    1.0000 </r>
       <r>   -8.2514    1.0000 </r>
       <r>   -7.2948    1.0000 </r>
       <r>   -6.2810    1.0000 </r>
       <r>   -3.9587    1.0000 </r>
       <r>   -3.2623    1.0000 </r>
       <r>   -2.7167    1.0000 </r>
       <r>   -1.9640    1.0000 </r>
       <r>   -0.6657    1.0000 </r>
       <r>    0.1445    1.0000 </r>
       <r>    0.1597    1.0000 </r>
       <r>    1.2290    1.0000 </r>
       <r>    2.1080    1.0000 </r>
       <r>    6.2351    0.0000 </r>
       <r>    7.2327    0.0000 </r>
       <r>    7.6097    0.0000 </r>
       <r>    8.5667    0.0000 </r>
       <r>   10.9184    0.0000 </r>
       <r>   11.9106    0.0000 </r>
       <r>   12.3261    0.0000 </r>
       <r>   12.6293    0.0000 </r>
      </set>
      <set comment="kpoint 21">
       <r>  -15.3420    1.0000 </r>
       <r>  -12.0490    1.0000 </r>
       <r>  -11.3529    1.0000 </r>
       <r>  -10.3865    1.0000 </r>
       <r>   -8.6861    1.0000 </r>
       <r>   -7.7523    1.0000 </r>
       <r>   -7.0835    1.0000 </r>
       <r>   -3.4579    1.0000 </r>
       <r>   -2.9346    1.0000 </r>
       <r>   -2.8712    1.0000 </r>
       <r>   -2.1455    1.0000 </r>
       <r>   -0.0459    1.0000 </r>
       <r>    0.4756    1.0000 </r>
       <r>    0.6770    1.0000 </r>
       <r>    1.3463    1.0000 </r>
       <r>    2.0944    1.0000 </r>
       <r>    6.1343    0.0000 </r>
       <r>    6.9756    0.0000 </r>
       <r>    7.3703    0.0000 </r>
       <r>    7.7684    0.0000 </r>
       <r>   11.5309    0.0000 </r>
       <r>   11.9084    0.0000 </r>
       <r>   12.3872    0.0000 </r>
       <r>   12.6327    0.0000 </r>
      </set>
      <set comment="kpoint 22">
       <r>  -15.4825    1.0000 </r>
       <r>  -11.4818    1.0000 </r>
       <r>  -11.1424    1.0000 </r>
       <r>  -10.2599    1.0000 </r>
       <r>   -9.0442    1.0000 </r>
       <r>   -8.1836    1.0000 </r>
       <r>   -7.8549    1.0000 </r>
       <r>   -3.0988    1.0000 </r>
       <r>   -3.0143    1.0000 </r>
       <r>   -2.5652    1.0000 </r>
       <r>   -2.2835    1.0000 </r>
       <r>    0.4569    1.0000 </r>
       <r>    0.7447    1.0000 </r>
       <r>    1.1886    1.0000 </r>
       <r>    1.4807    1.0000 </r>
       <r>    2.0565    1.0000 </r>
       <r>    6.0732    0.0000 </r>
       <r>    6.7157    0.0000 </r>
       <r>    7.0514    0.0000 </r>
       <r>    7.1909    0.0000 </r>
       <r>   11.6662    0.0000 </r>
       <r>   11.9571    0.0000 </r>
       <r>   12.4087    0.0000 </r>
       <r>   12.5981    0.0000 </r>
      </set>
      <set comment="kpoint 23">
       <r>  -15.5764    1.0000 </r>
       <r>  -10.8986    1.0000 </r>
       <r>  -10.8985    1.0000 </r>
       <r>  -10.2302    1.0000 </r>
       <r>   -9.2319    1.0000 </r>
       <r>   -8.5763    1.0000 </r>
       <r>   -8.5760    1.0000 </r>
       <r>   -3.2086    1.0000 </r>
       <r>   -2.6596    1.0000 </r>
       <r>   -2.3764    1.0000 </r>
       <r>   -2.3759    1.0000 </r>
       <r>    0.8136    1.0000 </r>
       <r>    0.9427    1.0000 </r>
       <r>    1.6232    1.0000 </r>
       <r>    1.6232    1.0000 </r>
       <r>    1.9878    1.0000 </r>
       <r>    6.0724    0.0000 </r>
       <r>    6.4768    0.0000 </r>
       <r>    6.4771    0.0000 </r>
       <r>    7.0714    0.0000 </r>
       <r>   11.6371    0.0000 </r>
       <r>   11.6377    0.0000 </r>
       <r>   11.9214    0.0000 </r>
       <r>   12.5488    0.0000 </r>
      </set>
      <set comment="kpoint 24">
       <r>  -15.6234    1.0000 </r>
       <r>  -10.6339    1.0000 </r>
       <r>  -10.3815    1.0000 </r>
       <r>  -10.3815    1.0000 </r>
       <r>   -9.1623    1.0000 </r>
       <r>   -9.1623    1.0000 </r>
       <r>   -8.9144    1.0000 </r>
       <r>   -3.2636    1.0000 </r>
       <r>   -2.4231    1.0000 </r>
       <r>   -2.4231    1.0000 </r>
       <r>   -2.3256    1.0000 </r>
       <r>    1.0006    1.0000 </r>
       <r>    1.0468    1.0000 </r>
       <r>    1.7629    1.0000 </r>
       <r>    1.8879    1.0000 </r>
       <r>    1.8879    1.0000 </r>
       <r>    6.1418    0.0000 </r>
       <r>    6.1418    0.0000 </r>
       <r>    6.2798    0.0000 </r>
       <r>    7.0117    0.0000 </r>
       <r>   11.5200    0.0000 </r>
       <r>   11.6168    0.0000 </r>
       <r>   11.6168    0.0000 </r>
       <r>   12.5230    0.0000 </r>
      </set>
      <set comment="kpoint 25">
       <r>  -15.3653    1.0000 </r>
       <r>  -11.7199    1.0000 </r>
       <r>  -11.7199    1.0000 </r>
       <r>  -10.0499    1.0000 </r>
       <r>   -9.0552    1.0000 </r>
       <r>   -7.4368    1.0000 </r>
       <r>   -7.4368    1.0000 </r>
       <r>   -3.4819    1.0000 </r>
       <r>   -2.9619    1.0000 </r>
       <r>   -2.4492    1.0000 </r>
       <r>   -2.4492    1.0000 </r>
       <r>    0.0579    1.0000 </r>
       <r>    0.4934    1.0000 </r>
       <r>    0.9969    1.0000 </r>
       <r>    0.9969    1.0000 </r>
       <r>    2.2418    1.0000 </r>
       <r>    5.9568    0.0000 </r>
       <r>    7.3405    0.0000 </r>
       <r>    7.3673    0.0000 </r>
       <r>    7.3673    0.0000 </r>
       <r>   11.9024    0.0000 </r>
       <r>   11.9025    0.0000 </r>
       <r>   12.2413    0.0000 </r>
       <r>   12.2419    0.0000 </r>
      </set>
      <set comment="kpoint 26">
       <r>  -15.2016    1.0000 </r>
       <r>  -12.2711    1.0000 </r>
       <r>  -11.9174    1.0000 </r>
       <r>  -10.0175    1.0000 </r>
       <r>   -8.8171    1.0000 </r>
       <r>   -6.9917    1.0000 </r>
       <r>   -6.6529    1.0000 </r>
       <r>   -4.0094    1.0000 </r>
       <r>   -2.7710    1.0000 </r>
       <r>   -2.7301    1.0000 </r>
       <r>   -2.2877    1.0000 </r>
       <r>   -0.4652    1.0000 </r>
       <r>    0.1755    1.0000 </r>
       <r>    0.4691    1.0000 </r>
       <r>    0.8319    1.0000 </r>
       <r>    2.3920    1.0000 </r>
       <r>    5.8986    0.0000 </r>
       <r>    7.5501    0.0000 </r>
       <r>    7.6777    0.0000 </r>
       <r>    8.1236    0.0000 </r>
       <r>   11.3274    0.0000 </r>
       <r>   11.7985    0.0000 </r>
       <r>   12.1702    0.0000 </r>
       <r>   12.6060    0.0000 </r>
      </set>
      <set comment="kpoint 27">
       <r>  -14.9914    1.0000 </r>
       <r>  -12.7864    1.0000 </r>
       <r>  -12.0722    1.0000 </r>
       <r>  -10.0799    1.0000 </r>
       <r>   -8.4216    1.0000 </r>
       <r>   -6.5318    1.0000 </r>
       <r>   -5.8447    1.0000 </r>
       <r>   -4.5648    1.0000 </r>
       <r>   -3.0925    1.0000 </r>
       <r>   -2.5270    1.0000 </r>
       <r>   -2.0831    1.0000 </r>
       <r>   -1.0927    1.0000 </r>
       <r>   -0.1774    1.0000 </r>
       <r>   -0.0613    1.0000 </r>
       <r>    0.6989    1.0000 </r>
       <r>    2.5027    1.0000 </r>
       <r>    5.8874    0.0000 </r>
       <r>    7.8196    0.0000 </r>
       <r>    7.9597    0.0000 </r>
       <r>    8.9378    0.0000 </r>
       <r>   10.6672    0.0000 </r>
       <r>   11.6111    0.0000 </r>
       <r>   12.2566    0.0000 </r>
       <r>   12.8174    0.0000 </r>
      </set>
      <set comment="kpoint 28">
       <r>  -14.7352    1.0000 </r>
       <r>  -13.2622    1.0000 </r>
       <r>  -12.1836    1.0000 </r>
       <r>  -10.1517    1.0000 </r>
       <r>   -7.9747    1.0000 </r>
       <r>   -6.0797    1.0000 </r>
       <r>   -5.1106    1.0000 </r>
       <r>   -5.0217    1.0000 </r>
       <r>   -3.4922    1.0000 </r>
       <r>   -2.2309    1.0000 </r>
       <r>   -1.8379    1.0000 </r>
       <r>   -1.8015    1.0000 </r>
       <r>   -0.5722    1.0000 </r>
       <r>   -0.5414    1.0000 </r>
       <r>    0.6016    1.0000 </r>
       <r>    2.5755    1.0000 </r>
       <r>    5.9041    0.0000 </r>
       <r>    8.1487    0.0000 </r>
       <r>    8.1880    0.0000 </r>
       <r>    9.7801    0.0000 </r>
       <r>   10.0513    0.0000 </r>
       <r>   11.4694    0.0000 </r>
       <r>   12.3680    0.0000 </r>
       <r>   12.7911    0.0000 </r>
      </set>
      <set comment="kpoint 29">
       <r>  -14.4336    1.0000 </r>
[...]
        <r>  0.0000  0.0000  0.0822  0.0000  0.0000  0.0000  0.0000  0.0000  0.0000 </r>
        <r>  0.0000  0.0000  0.0822  0.0000  0.0000  0.0000  0.0000  0.0000  0.0000 </r>
        <r>  0.0000  0.0000  0.0822  0.0000  0.0000  0.0000  0.0000  0.0000  0.0000 </r>
        <r>  0.0000  0.0000  0.0822  0.0000  0.0000  0.0000  0.0000  0.0000  0.0000 </r>
        <r>  0.0000  0.0000  0.0822  0.0000  0.0000  0.0000  0.0000  0.0000  0.0000 </r>
        <r>  0.0000  0.0000  0.0822  0.0000  0.0000  0.0000  0.0000  0.0000  0.0000 </r>
       </set>
      </set>
      <set comment="kpoint 73">
       <set comment="band 1">
        <r>  0.0130  0.0035  0.0000  0.0105  0.0000  0.0000  0.0000  0.0000  0.0000 </r>
        <r>  0.0393  0.0027  0.0000  0.0082  0.0000  0.0000  0.0000  0.0000  0.0000 </r>
        <r>  0.1362  0.0003  0.0000  0.0010  0.0000  0.0000  0.0000  0.0000  0.0000 </r>
        <r>  0.1098  0.0011  0.0000  0.0033  0.0000  0.0000  0.0000  0.0000  0.0000 </r>
        <r>  0.1362  0.0003  0.0000  0.0010  0.0000  0.0000  0.0000  0.0000  0.0000 </r>
        <r>  0.1098  0.0011  0.0000  0.0033  0.0000  0.0000  0.0000  0.0000  0.0000 </r>
        <r>  0.0130  0.0035  0.0000  0.0105  0.0000  0.0000  0.0000  0.0000  0.0000 </r>
        <r>  0.0393  0.0027  0.0000  0.0082  0.0000  0.0000  0.0000  0.0000  0.0000 </r>
       </set>
       <set comment="band 2">
        <r>  0.1362  0.0003  0.0000  0.0010  0.0000  0.0000  0.0000  0.0000  0.0000 </r>
        <r>  0.1098  0.0011  0.0000  0.0033  0.0000  0.0000  0.0000  0.0000  0.0000 </r>
        <r>  0.0130  0.0035  0.0000  0.0105  0.0000  0.0000  0.0000  0.0000  0.0000 </r>
        <r>  0.0393  0.0027  0.0000  0.0082  0.0000  0.0000  0.0000  0.0000  0.0000 </r>
        <r>  0.0130  0.0035  0.0000  0.0105  0.0000  0.0000  0.0000  0.0000  0.0000 </r>
        <r>  0.0393  0.0027  0.0000  0.0082  0.0000  0.0000  0.0000  0.0000  0.0000 </r>
        <r>  0.1362  0.0003  0.0000  0.0010  0.0000  0.0000  0.0000  0.0000  0.0000 </r>
        <r>  0.1098  0.0011  0.0000  0.0033  0.0000  0.0000  0.0000  0.0000  0.0000 </r>
       </set>
       <set comment="band 3">
        <r>  0.0297  0.0239  0.0000  0.0090  0.0000  0.0000  0.0000  0.0000  0.0000 </r>
        <r>  0.1003  0.0067  0.0000  0.0035  0.0000  0.0000  0.0000  0.0000  0.0000 </r>
        <r>  0.1003  0.0081  0.0000  0.0022  0.0000  0.0000  0.0000  0.0000  0.0000 </r>
        <r>  0.0297  0.0252  0.0000  0.0076  0.0000  0.0000  0.0000  0.0000  0.0000 </r>
        <r>  0.1003  0.0081  0.0000  0.0022  0.0000  0.0000  0.0000  0.0000  0.0000 </r>
        <r>  0.0297  0.0252  0.0000  0.0076  0.0000  0.0000  0.0000  0.0000  0.0000 </r>
        <r>  0.0297  0.0239  0.0000  0.0090  0.0000  0.0000  0.0000  0.0000  0.0000 </r>
        <r>  0.1003  0.0067  0.0000  0.0035  0.0000  0.0000  0.0000  0.0000  0.0000 </r>
       </set>
       <set comment="band 4">
        <r>  0.1003  0.0081  0.0000  0.0022  0.0000  0.0000  0.0000  0.0000  0.0000 </r>
        <r>  0.0297  0.0252  0.0000  0.0076  0.0000  0.0000  0.0000  0.0000  0.0000 </r>
        <r>  0.0297  0.0239  0.0000  0.0090  0.0000  0.0000  0.0000  0.0000  0.0000 </r>
        <r>  0.1003  0.0067  0.0000  0.0035  0.0000  0.0000  0.0000  0.0000  0.0000 </r>
        <r>  0.0297  0.0239  0.0000  0.0090  0.0000  0.0000  0.0000  0.0000  0.0000 </r>
        <r>  0.1003  0.0067  0.0000  0.0035  0.0000  0.0000  0.0000  0.0000  0.0000 </r>
        <r>  0.1003  0.0081  0.0000  0.0022  0.0000  0.0000  0.0000  0.0000  0.0000 </r>
        <r>  0.0297  0.0252  0.0000  0.0076  0.0000  0.0000  0.0000  0.0000  0.0000 </r>
       </set>
       <set comment="band 5">
        <r>  0.0481  0.0246  0.0000  0.0223  0.0000  0.0000  0.0000  0.0000  0.0000 </r>
        <r>  0.0479  0.0247  0.0000  0.0223  0.0000  0.0000  0.0000  0.0000  0.0000 </r>
        <r>  0.0479  0.0317  0.0000  0.0153  0.0000  0.0000  0.0000  0.0000  0.0000 </r>
        <r>  0.0481  0.0316  0.0000  0.0153  0.0000  0.0000  0.0000  0.0000  0.0000 </r>
        <r>  0.0479  0.0317  0.0000  0.0153  0.0000  0.0000  0.0000  0.0000  0.0000 </r>
        <r>  0.0481  0.0316  0.0000  0.0153  0.0000  0.0000  0.0000  0.0000  0.0000 </r>
        <r>  0.0481  0.0246  0.0000  0.0223  0.0000  0.0000  0.0000  0.0000  0.0000 </r>
        <r>  0.0479  0.0247  0.0000  0.0223  0.0000  0.0000  0.0000  0.0000  0.0000 </r>
       </set>
       <set comment="band 6">
        <r>  0.0479  0.0317  0.0000  0.0153  0.0000  0.0000  0.0000  0.0000  0.0000 </r>
        <r>  0.0481  0.0316  0.0000  0.0153  0.0000  0.0000  0.0000  0.0000  0.0000 </r>
        <r>  0.0481  0.0246  0.0000  0.0223  0.0000  0.0000  0.0000  0.0000  0.0000 </r>
        <r>  0.0479  0.0247  0.0000  0.0223  0.0000  0.0000  0.0000  0.0000  0.0000 </r>
        <r>  0.0481  0.0246  0.0000  0.0223  0.0000  0.0000  0.0000  0.0000  0.0000 </r>
        <r>  0.0479  0.0247  0.0000  0.0223  0.0000  0.0000  0.0000  0.0000  0.0000 </r>
        <r>  0.0479  0.0317  0.0000  0.0153  0.0000  0.0000  0.0000  0.0000  0.0000 </r>
        <r>  0.0481  0.0316  0.0000  0.0153  0.0000  0.0000  0.0000  0.0000  0.0000 </r>
       </set>
       <set comment="band 7">
        <r>  0.0013  0.0102  0.0000  0.0347  0.0000  0.0000  0.0000  0.0000  0.0000 </r>
        <r>  0.0117  0.0133  0.0000  0.1021  0.0000  0.0000  0.0000  0.0000  0.0000 </r>
        <r>  0.0117  0.0480  0.0000  0.0675  0.0000  0.0000  0.0000  0.0000  0.0000 </r>
        <r>  0.0013  0.0448  0.0000  0.0000  0.0000  0.0000  0.0000  0.0000  0.0000 </r>
        <r>  0.0117  0.0480  0.0000  0.0675  0.0000  0.0000  0.0000  0.0000  0.0000 </r>
        <r>  0.0013  0.0448  0.0000  0.0000  0.0000  0.0000  0.0000  0.0000  0.0000 </r>
        <r>  0.0013  0.0102  0.0000  0.0347  0.0000  0.0000  0.0000  0.0000  0.0000 </r>
        <r>  0.0117  0.0133  0.0000  0.1021  0.0000  0.0000  0.0000  0.0000  0.0000 </r>
       </set>
       <set comment="band 8">
        <r>  0.0117  0.0480  0.0000  0.0675  0.0000  0.0000  0.0000  0.0000  0.0000 </r>
        <r>  0.0013  0.0448  0.0000  0.0000  0.0000  0.0000  0.0000  0.0000  0.0000 </r>
        <r>  0.0013  0.0102  0.0000  0.0347  0.0000  0.0000  0.0000  0.0000  0.0000 </r>
        <r>  0.0117  0.0133  0.0000  0.1021  0.0000  0.0000  0.0000  0.0000  0.0000 </r>
        <r>  0.0013  0.0102  0.0000  0.0347  0.0000  0.0000  0.0000  0.0000  0.0000 </r>
        <r>  0.0117  0.0133  0.0000  0.1021  0.0000  0.0000  0.0000  0.0000  0.0000 </r>
        <r>  0.0117  0.0480  0.0000  0.0675  0.0000  0.0000  0.0000  0.0000  0.0000 </r>
        <r>  0.0013  0.0448  0.0000  0.0000  0.0000  0.0000  0.0000  0.0000  0.0000 </r>
       </set>
       <set comment="band 9">
        <r>  0.0446  0.0014  0.0000  0.0042  0.0000  0.0000  0.0000  0.0000  0.0000 </r>
        <r>  0.0034  0.0342  0.0000  0.1027  0.0000  0.0000  0.0000  0.0000  0.0000 </r>
        <r>  0.0048  0.0337  0.0000  0.1012  0.0000  0.0000  0.0000  0.0000  0.0000 </r>
        <r>  0.0461  0.0009  0.0000  0.0027  0.0000  0.0000  0.0000  0.0000  0.0000 </r>
        <r>  0.0048  0.0337  0.0000  0.1012  0.0000  0.0000  0.0000  0.0000  0.0000 </r>
        <r>  0.0461  0.0009  0.0000  0.0027  0.0000  0.0000  0.0000  0.0000  0.0000 </r>
        <r>  0.0446  0.0014  0.0000  0.0042  0.0000  0.0000  0.0000  0.0000  0.0000 </r>
        <r>  0.0034  0.0342  0.0000  0.1027  0.0000  0.0000  0.0000  0.0000  0.0000 </r>
       </set>
       <set comment="band 10">
        <r>  0.0048  0.0337  0.0000  0.1012  0.0000  0.0000  0.0000  0.0000  0.0000 </r>
        <r>  0.0461  0.0009  0.0000  0.0027  0.0000  0.0000  0.0000  0.0000  0.0000 </r>
        <r>  0.0446  0.0014  0.0000  0.0042  0.0000  0.0000  0.0000  0.0000  0.0000 </r>
        <r>  0.0034  0.0342  0.0000  0.1027  0.0000  0.0000  0.0000  0.0000  0.0000 </r>
        <r>  0.0446  0.0014  0.0000  0.0042  0.0000  0.0000  0.0000  0.0000  0.0000 </r>
        <r>  0.0034  0.0342  0.0000  0.1027  0.0000  0.0000  0.0000  0.0000  0.0000 </r>
        <r>  0.0048  0.0337  0.0000  0.1012  0.0000  0.0000  0.0000  0.0000  0.0000 </r>
        <r>  0.0461  0.0009  0.0000  0.0027  0.0000  0.0000  0.0000  0.0000  0.0000 </r>
       </set>
       <set comment="band 11">
        <r>  0.0000  0.0000  0.0113  0.0000  0.0000  0.0000  0.0000  0.0000  0.0000 </r>
        <r>  0.0000  0.0000  0.0310  0.0000  0.0000  0.0000  0.0000  0.0000  0.0000 </r>
        <r>  0.0000  0.0000  0.1086  0.0000  0.0000  0.0000  0.0000  0.0000  0.0000 </r>
        <r>  0.0000  0.0000  0.0888  0.0000  0.0000  0.0000  0.0000  0.0000  0.0000 </r>
        <r>  0.0000  0.0000  0.1086  0.0000  0.0000  0.0000  0.0000  0.0000  0.0000 </r>
        <r>  0.0000  0.0000  0.0888  0.0000  0.0000  0.0000  0.0000  0.0000  0.0000 </r>
        <r>  0.0000  0.0000  0.0113  0.0000  0.0000  0.0000  0.0000  0.0000  0.0000 </r>
        <r>  0.0000  0.0000  0.0310  0.0000  0.0000  0.0000  0.0000  0.0000  0.0000 </r>
       </set>
       <set comment="band 12">
        <r>  0.0000  0.0000  0.1086  0.0000  0.0000  0.0000  0.0000  0.0000  0.0000 </r>
        <r>  0.0000  0.0000  0.0888  0.0000  0.0000  0.0000  0.0000  0.0000  0.0000 </r>
        <r>  0.0000  0.0000  0.0113  0.0000  0.0000  0.0000  0.0000  0.0000  0.0000 </r>
        <r>  0.0000  0.0000  0.0310  0.0000  0.0000  0.0000  0.0000  0.0000  0.0000 </r>
        <r>  0.0000  0.0000  0.0113  0.0000  0.0000  0.0000  0.0000  0.0000  0.0000 </r>
        <r>  0.0000  0.0000  0.0310  0.0000  0.0000  0.0000  0.0000  0.0000  0.0000 </r>
        <r>  0.0000  0.0000  0.1086  0.0000  0.0000  0.0000  0.0000  0.0000  0.0000 </r>
        <r>  0.0000  0.0000  0.0888  0.0000  0.0000  0.0000  0.0000  0.0000  0.0000 </r>
       </set>
       <set comment="band 13">
        <r>  0.0000  0.0704  0.0000  0.0235  0.0000  0.0000  0.0000  0.0000  0.0000 </r>
        <r>  0.0000  0.0522  0.0000  0.0174  0.0000  0.0000  0.0000  0.0000  0.0000 </r>
        <r>  0.0000  0.0790  0.0000  0.0263  0.0000  0.0000  0.0000  0.0000  0.0000 </r>
        <r>  0.0000  0.0972  0.0000  0.0324  0.0000  0.0000  0.0000  0.0000  0.0000 </r>
        <r>  0.0000  0.0790  0.0000  0.0263  0.0000  0.0000  0.0000  0.0000  0.0000 </r>
        <r>  0.0000  0.0972  0.0000  0.0324  0.0000  0.0000  0.0000  0.0000  0.0000 </r>
        <r>  0.0000  0.0704  0.0000  0.0235  0.0000  0.0000  0.0000  0.0000  0.0000 </r>
        <r>  0.0000  0.0522  0.0000  0.0174  0.0000  0.0000  0.0000  0.0000  0.0000 </r>
       </set>
       <set comment="band 14">
        <r>  0.0000  0.0790  0.0000  0.0263  0.0000  0.0000  0.0000  0.0000  0.0000 </r>
        <r>  0.0000  0.0972  0.0000  0.0324  0.0000  0.0000  0.0000  0.0000  0.0000 </r>
        <r>  0.0000  0.0704  0.0000  0.0235  0.0000  0.0000  0.0000  0.0000  0.0000 </r>
        <r>  0.0000  0.0522  0.0000  0.0174  0.0000  0.0000  0.0000  0.0000  0.0000 </r>
        <r>  0.0000  0.0704  0.0000  0.0235  0.0000  0.0000  0.0000  0.0000  0.0000 </r>
        <r>  0.0000  0.0522  0.0000  0.0174  0.0000  0.0000  0.0000  0.0000  0.0000 </r>
        <r>  0.0000  0.0790  0.0000  0.0263  0.0000  0.0000  0.0000  0.0000  0.0000 </r>
        <r>  0.0000  0.0972  0.0000  0.0324  0.0000  0.0000  0.0000  0.0000  0.0000 </r>
       </set>
       <set comment="band 15">
        <r>  0.0000  0.0000  0.0858  0.0000  0.0000  0.0000  0.0000  0.0000  0.0000 </r>
        <r>  0.0000  0.0000  0.0424  0.0000  0.0000  0.0000  0.0000  0.0000  0.0000 </r>
        <r>  0.0000  0.0000  0.0424  0.0000  0.0000  0.0000  0.0000  0.0000  0.0000 </r>
        <r>  0.0000  0.0000  0.0858  0.0000  0.0000  0.0000  0.0000  0.0000  0.0000 </r>
        <r>  0.0000  0.0000  0.0424  0.0000  0.0000  0.0000  0.0000  0.0000  0.0000 </r>
        <r>  0.0000  0.0000  0.0858  0.0000  0.0000  0.0000  0.0000  0.0000  0.0000 </r>
        <r>  0.0000  0.0000  0.0858  0.0000  0.0000  0.0000  0.0000  0.0000  0.0000 </r>
        <r>  0.0000  0.0000  0.0424  0.0000  0.0000  0.0000  0.0000  0.0000  0.0000 </r>
       </set>
       <set comment="band 16">
        <r>  0.0000  0.0000  0.0424  0.0000  0.0000  0.0000  0.0000  0.0000  0.0000 </r>
        <r>  0.0000  0.0000  0.0858  0.0000  0.0000  0.0000  0.0000  0.0000  0.0000 </r>
        <r>  0.0000  0.0000  0.0858  0.0000  0.0000  0.0000  0.0000  0.0000  0.0000 </r>
        <r>  0.0000  0.0000  0.0424  0.0000  0.0000  0.0000  0.0000  0.0000  0.0000 </r>
        <r>  0.0000  0.0000  0.0858  0.0000  0.0000  0.0000  0.0000  0.0000  0.0000 </r>
        <r>  0.0000  0.0000  0.0424  0.0000  0.0000  0.0000  0.0000  0.0000  0.0000 </r>
        <r>  0.0000  0.0000  0.0424  0.0000  0.0000  0.0000  0.0000  0.0000  0.0000 </r>
        <r>  0.0000  0.0000  0.0858  0.0000  0.0000  0.0000  0.0000  0.0000  0.0000 </r>
       </set>
       <set comment="band 17">
        <r>  0.0000  0.0000  0.0682  0.0000  0.0000  0.0000  0.0000  0.0000  0.0000 </r>
        <r>  0.0000  0.0000  0.0744  0.0000  0.0000  0.0000  0.0000  0.0000  0.0000 </r>
        <r>  0.0000  0.0000  0.0744  0.0000  0.0000  0.0000  0.0000  0.0000  0.0000 </r>
        <r>  0.0000  0.0000  0.0682  0.0000  0.0000  0.0000  0.0000  0.0000  0.0000 </r>
        <r>  0.0000  0.0000  0.0744  0.0000  0.0000  0.0000  0.0000  0.0000  0.0000 </r>
        <r>  0.0000  0.0000  0.0682  0.0000  0.0000  0.0000  0.0000  0.0000  0.0000 </r>
        <r>  0.0000  0.0000  0.0682  0.0000  0.0000  0.0000  0.0000  0.0000  0.0000 </r>
        <r>  0.0000  0.0000  0.0744  0.0000  0.0000  0.0000  0.0000  0.0000  0.0000 </r>
       </set>
       <set comment="band 18">
        <r>  0.0000  0.0000  0.0744  0.0000  0.0000  0.0000  0.0000  0.0000  0.0000 </r>
        <r>  0.0000  0.0000  0.0682  0.0000  0.0000  0.0000  0.0000  0.0000  0.0000 </r>
        <r>  0.0000  0.0000  0.0682  0.0000  0.0000  0.0000  0.0000  0.0000  0.0000 </r>
        <r>  0.0000  0.0000  0.0744  0.0000  0.0000  0.0000  0.0000  0.0000  0.0000 </r>
        <r>  0.0000  0.0000  0.0682  0.0000  0.0000  0.0000  0.0000  0.0000  0.0000 </r>
        <r>  0.0000  0.0000  0.0744  0.0000  0.0000  0.0000  0.0000  0.0000  0.0000 </r>
        <r>  0.0000  0.0000  0.0744  0.0000  0.0000  0.0000  0.0000  0.0000  0.0000 </r>
        <r>  0.0000  0.0000  0.0682  0.0000  0.0000  0.0000  0.0000  0.0000  0.0000 </r>
       </set>
       <set comment="band 19">
        <r>  0.0045  0.0011  0.0000  0.0033  0.0000  0.0000  0.0000  0.0000  0.0000 </r>
        <r>  0.0072  0.0002  0.0000  0.0005  0.0000  0.0000  0.0000  0.0000  0.0000 </r>
        <r>  0.0064  0.0002  0.0000  0.0006  0.0000  0.0000  0.0000  0.0000  0.0000 </r>
        <r>  0.0038  0.0012  0.0000  0.0035  0.0000  0.0000  0.0000  0.0000  0.0000 </r>
        <r>  0.0064  0.0002  0.0000  0.0006  0.0000  0.0000  0.0000  0.0000  0.0000 </r>
        <r>  0.0038  0.0012  0.0000  0.0035  0.0000  0.0000  0.0000  0.0000  0.0000 </r>
        <r>  0.0045  0.0011  0.0000  0.0033  0.0000  0.0000  0.0000  0.0000  0.0000 </r>
        <r>  0.0072  0.0002  0.0000  0.0005  0.0000  0.0000  0.0000  0.0000  0.0000 </r>
       </set>
       <set comment="band 20">
        <r>  0.0064  0.0002  0.0000  0.0006  0.0000  0.0000  0.0000  0.0000  0.0000 </r>
        <r>  0.0038  0.0012  0.0000  0.0035  0.0000  0.0000  0.0000  0.0000  0.0000 </r>
        <r>  0.0045  0.0011  0.0000  0.0033  0.0000  0.0000  0.0000  0.0000  0.0000 </r>
        <r>  0.0072  0.0002  0.0000  0.0005  0.0000  0.0000  0.0000  0.0000  0.0000 </r>
        <r>  0.0045  0.0011  0.0000  0.0033  0.0000  0.0000  0.0000  0.0000  0.0000 </r>
        <r>  0.0072  0.0002  0.0000  0.0005  0.0000  0.0000  0.0000  0.0000  0.0000 </r>
        <r>  0.0064  0.0002  0.0000  0.0006  0.0000  0.0000  0.0000  0.0000  0.0000 </r>
        <r>  0.0038  0.0012  0.0000  0.0035  0.0000  0.0000  0.0000  0.0000  0.0000 </r>
       </set>
       <set comment="band 21">
        <r>  0.0000  0.0000  0.1004  0.0000  0.0000  0.0000  0.0000  0.0000  0.0000 </r>
        <r>  0.0000  0.0000  0.0380  0.0000  0.0000  0.0000  0.0000  0.0000  0.0000 </r>
        <r>  0.0000  0.0000  0.0576  0.0000  0.0000  0.0000  0.0000  0.0000  0.0000 </r>
        <r>  0.0000  0.0000  0.1200  0.0000  0.0000  0.0000  0.0000  0.0000  0.0000 </r>
        <r>  0.0000  0.0000  0.0576  0.0000  0.0000  0.0000  0.0000  0.0000  0.0000 </r>
        <r>  0.0000  0.0000  0.1200  0.0000  0.0000  0.0000  0.0000  0.0000  0.0000 </r>
        <r>  0.0000  0.0000  0.1004  0.0000  0.0000  0.0000  0.0000  0.0000  0.0000 </r>
        <r>  0.0000  0.0000  0.0380  0.0000  0.0000  0.0000  0.0000  0.0000  0.0000 </r>
       </set>
       <set comment="band 22">
        <r>  0.0000  0.0000  0.0576  0.0000  0.0000  0.0000  0.0000  0.0000  0.0000 </r>
        <r>  0.0000  0.0000  0.1200  0.0000  0.0000  0.0000  0.0000  0.0000  0.0000 </r>
        <r>  0.0000  0.0000  0.1004  0.0000  0.0000  0.0000  0.0000  0.0000  0.0000 </r>
        <r>  0.0000  0.0000  0.0380  0.0000  0.0000  0.0000  0.0000  0.0000  0.0000 </r>
        <r>  0.0000  0.0000  0.1004  0.0000  0.0000  0.0000  0.0000  0.0000  0.0000 </r>
        <r>  0.0000  0.0000  0.0380  0.0000  0.0000  0.0000  0.0000  0.0000  0.0000 </r>
        <r>  0.0000  0.0000  0.0576  0.0000  0.0000  0.0000  0.0000  0.0000  0.0000 </r>
        <r>  0.0000  0.0000  0.1200  0.0000  0.0000  0.0000  0.0000  0.0000  0.0000 </r>
       </set>
       <set comment="band 23">
        <r>  0.0106  0.0111  0.0000  0.0334  0.0000  0.0000  0.0000  0.0000  0.0000 </r>
        <r>  0.0420  0.0015  0.0000  0.0044  0.0000  0.0000  0.0000  0.0000  0.0000 </r>
        <r>  0.0502  0.0026  0.0000  0.0078  0.0000  0.0000  0.0000  0.0000  0.0000 </r>
        <r>  0.0188  0.0122  0.0000  0.0367  0.0000  0.0000  0.0000  0.0000  0.0000 </r>
        <r>  0.0502  0.0026  0.0000  0.0078  0.0000  0.0000  0.0000  0.0000  0.0000 </r>
        <r>  0.0188  0.0122  0.0000  0.0367  0.0000  0.0000  0.0000  0.0000  0.0000 </r>
        <r>  0.0106  0.0111  0.0000  0.0333  0.0000  0.0000  0.0000  0.0000  0.0000 </r>
        <r>  0.0420  0.0015  0.0000  0.0044  0.0000  0.0000  0.0000  0.0000  0.0000 </r>
       </set>
       <set comment="band 24">
        <r>  0.0502  0.0026  0.0000  0.0078  0.0000  0.0000  0.0000  0.0000  0.0000 </r>
        <r>  0.0188  0.0122  0.0000  0.0367  0.0000  0.0000  0.0000  0.0000  0.0000 </r>
        <r>  0.0106  0.0111  0.0000  0.0334  0.0000  0.0000  0.0000  0.0000  0.0000 </r>
        <r>  0.0420  0.0015  0.0000  0.0044  0.0000  0.0000  0.0000  0.0000  0.0000 </r>
        <r>  0.0106  0.0111  0.0000  0.0333  0.0000  0.0000  0.0000  0.0000  0.0000 </r>
        <r>  0.0420  0.0015  0.0000  0.0044  0.0000  0.0000  0.0000  0.0000  0.0000 </r>
        <r>  0.0502  0.0026  0.0000  0.0078  0.0000  0.0000  0.0000  0.0000  0.0000 </r>
        <r>  0.0188  0.0123  0.0000  0.0367  0.0000  0.0000  0.0000  0.0000  0.0000 </r>
       </set>
      </set>
     </set>
    </set>
   </array>
  </projected>
 </calculation>
 <structure name="finalpos" >
  <crystal>
   <varray name="basis" >
    <v>       4.90416594      -0.00003262       0.00000000 </v>
    <v>      -2.45211122       4.24711598       0.00000000 </v>
    <v>       0.00000000       0.00000000       3.84274793 </v>
   </varray>
   <i name="volume">     80.03860417 </i>
   <varray name="rec_basis" >
    <v>       0.20390905       0.11772876       0.00000000 </v>
    <v>       0.00000157       0.23545480       0.00000000 </v>
    <v>       0.00000000       0.00000000       0.26023044 </v>
   </varray>
  </crystal>
  <varray name="positions" >
   <v>       0.99999710       0.00000290       0.07317000 </v>
   <v>       0.33333290       0.16666710       0.07317000 </v>
   <v>       0.49999710       0.00000290       0.07317000 </v>
   <v>       0.83333287       0.16666710       0.07317000 </v>
   <v>       0.99999710       0.50000290       0.07317000 </v>
   <v>       0.33333290       0.66666713       0.07317000 </v>
   <v>       0.49999710       0.50000290       0.07317000 </v>
   <v>       0.83333287       0.66666713       0.07317000 </v>
  </varray>
 </structure>
</modeling>
